# Region      : all region0
# Cells       : 4755976
# Volume      : 9.809997e-06
# Time        	volAverage(k)
800           	2.303873e-03
