# Region      : cellZone box
# Cells       : 2628800
# Volume      : 5.249270e-06
# Time        	volAverage(U)
1             	4.950414e-01
2             	2.696897e+00
3             	4.044179e+00
4             	4.305126e+00
5             	3.666414e+00
6             	2.742635e+00
7             	1.626840e+00
8             	8.182205e-01
9             	4.751405e-01
10            	5.645470e-01
11            	9.168716e-01
12            	1.357295e+00
13            	1.746514e+00
14            	1.977021e+00
15            	2.031307e+00
16            	1.953040e+00
17            	1.807336e+00
18            	1.655401e+00
19            	1.541401e+00
20            	1.485755e+00
21            	1.486475e+00
22            	1.526348e+00
23            	1.582143e+00
24            	1.633137e+00
25            	1.666542e+00
26            	1.678663e+00
27            	1.673041e+00
28            	1.656986e+00
29            	1.638357e+00
30            	1.623295e+00
31            	1.614952e+00
32            	1.613569e+00
33            	1.617294e+00
34            	1.623367e+00
35            	1.629222e+00
36            	1.633181e+00
37            	1.634645e+00
38            	1.633931e+00
39            	1.631885e+00
40            	1.629485e+00
41            	1.627521e+00
42            	1.626446e+00
43            	1.626356e+00
44            	1.627036e+00
45            	1.628101e+00
46            	1.629168e+00
47            	1.629959e+00
48            	1.630330e+00
49            	1.630287e+00
50            	1.629932e+00
51            	1.629412e+00
52            	1.628863e+00
53            	1.628395e+00
54            	1.628065e+00
55            	1.627896e+00
56            	1.627871e+00
57            	1.627944e+00
58            	1.628068e+00
59            	1.628215e+00
60            	1.628373e+00
61            	1.628535e+00
62            	1.628695e+00
63            	1.628860e+00
64            	1.629038e+00
65            	1.629211e+00
66            	1.629347e+00
67            	1.629410e+00
68            	1.629348e+00
69            	1.629173e+00
70            	1.628915e+00
71            	1.628638e+00
72            	1.628403e+00
73            	1.628258e+00
74            	1.628205e+00
75            	1.628216e+00
76            	1.628290e+00
77            	1.628413e+00
78            	1.628566e+00
79            	1.628726e+00
80            	1.628867e+00
81            	1.628972e+00
82            	1.629048e+00
83            	1.629112e+00
84            	1.629151e+00
85            	1.629139e+00
86            	1.629083e+00
87            	1.628996e+00
88            	1.628902e+00
89            	1.628787e+00
90            	1.628653e+00
91            	1.628517e+00
92            	1.628391e+00
93            	1.628314e+00
94            	1.628317e+00
95            	1.628407e+00
96            	1.628556e+00
97            	1.628746e+00
98            	1.628944e+00
99            	1.629118e+00
100           	1.629250e+00
101           	1.629324e+00
102           	1.629343e+00
103           	1.629307e+00
104           	1.629227e+00
105           	1.629118e+00
106           	1.628983e+00
107           	1.628805e+00
108           	1.628608e+00
109           	1.628422e+00
110           	1.628290e+00
111           	1.628247e+00
112           	1.628315e+00
113           	1.628448e+00
114           	1.628624e+00
115           	1.628789e+00
116           	1.628921e+00
117           	1.629038e+00
118           	1.629124e+00
119           	1.629150e+00
120           	1.629108e+00
121           	1.629024e+00
122           	1.628964e+00
123           	1.628928e+00
124           	1.628874e+00
125           	1.628808e+00
126           	1.628711e+00
127           	1.628584e+00
128           	1.628455e+00
129           	1.628368e+00
130           	1.628341e+00
131           	1.628374e+00
132           	1.628455e+00
133           	1.628570e+00
134           	1.628711e+00
135           	1.628845e+00
136           	1.628907e+00
137           	1.628883e+00
138           	1.628832e+00
139           	1.628820e+00
140           	1.628852e+00
141           	1.628890e+00
142           	1.628868e+00
143           	1.628765e+00
144           	1.628617e+00
145           	1.628452e+00
146           	1.628306e+00
147           	1.628217e+00
148           	1.628171e+00
149           	1.628137e+00
150           	1.628130e+00
151           	1.628169e+00
152           	1.628246e+00
153           	1.628325e+00
154           	1.628388e+00
155           	1.628428e+00
156           	1.628480e+00
157           	1.628557e+00
158           	1.628619e+00
159           	1.628619e+00
160           	1.628552e+00
161           	1.628430e+00
162           	1.628273e+00
163           	1.628132e+00
164           	1.628037e+00
165           	1.627977e+00
166           	1.627963e+00
167           	1.628020e+00
168           	1.628145e+00
169           	1.628276e+00
170           	1.628343e+00
171           	1.628321e+00
172           	1.628255e+00
173           	1.628211e+00
174           	1.628212e+00
175           	1.628237e+00
176           	1.628280e+00
177           	1.628331e+00
178           	1.628392e+00
179           	1.628433e+00
180           	1.628428e+00
181           	1.628341e+00
182           	1.628196e+00
183           	1.628055e+00
184           	1.627976e+00
185           	1.627966e+00
186           	1.628042e+00
187           	1.628156e+00
188           	1.628248e+00
189           	1.628296e+00
190           	1.628302e+00
191           	1.628293e+00
192           	1.628280e+00
193           	1.628280e+00
194           	1.628309e+00
195           	1.628382e+00
196           	1.628486e+00
197           	1.628561e+00
198           	1.628545e+00
199           	1.628447e+00
200           	1.628321e+00
201           	1.628207e+00
202           	1.628118e+00
203           	1.628073e+00
204           	1.628071e+00
205           	1.628089e+00
206           	1.628145e+00
207           	1.628266e+00
208           	1.628427e+00
209           	1.628578e+00
210           	1.628693e+00
211           	1.628752e+00
212           	1.628789e+00
213           	1.628816e+00
214           	1.628783e+00
215           	1.628643e+00
216           	1.628450e+00
217           	1.628283e+00
218           	1.628171e+00
219           	1.628086e+00
220           	1.628032e+00
221           	1.628040e+00
222           	1.628124e+00
223           	1.628285e+00
224           	1.628464e+00
225           	1.628600e+00
226           	1.628665e+00
227           	1.628688e+00
228           	1.628700e+00
229           	1.628690e+00
230           	1.628641e+00
231           	1.628561e+00
232           	1.628476e+00
233           	1.628414e+00
234           	1.628383e+00
235           	1.628356e+00
236           	1.628302e+00
237           	1.628241e+00
238           	1.628204e+00
239           	1.628225e+00
240           	1.628262e+00
241           	1.628289e+00
242           	1.628310e+00
243           	1.628337e+00
244           	1.628365e+00
245           	1.628417e+00
246           	1.628481e+00
247           	1.628549e+00
248           	1.628599e+00
249           	1.628673e+00
250           	1.628757e+00
251           	1.628791e+00
252           	1.628742e+00
253           	1.628630e+00
254           	1.628501e+00
255           	1.628392e+00
256           	1.628322e+00
257           	1.628259e+00
258           	1.628173e+00
259           	1.628076e+00
260           	1.628031e+00
261           	1.628064e+00
262           	1.628163e+00
263           	1.628302e+00
264           	1.628422e+00
265           	1.628540e+00
266           	1.628681e+00
267           	1.628811e+00
268           	1.628873e+00
269           	1.628853e+00
270           	1.628771e+00
271           	1.628672e+00
272           	1.628583e+00
273           	1.628512e+00
274           	1.628459e+00
275           	1.628406e+00
276           	1.628367e+00
277           	1.628343e+00
278           	1.628341e+00
279           	1.628340e+00
280           	1.628321e+00
281           	1.628285e+00
282           	1.628279e+00
283           	1.628332e+00
284           	1.628410e+00
285           	1.628467e+00
286           	1.628513e+00
287           	1.628561e+00
288           	1.628626e+00
289           	1.628687e+00
290           	1.628697e+00
291           	1.628664e+00
292           	1.628613e+00
293           	1.628576e+00
294           	1.628559e+00
295           	1.628557e+00
296           	1.628559e+00
297           	1.628541e+00
298           	1.628478e+00
299           	1.628396e+00
300           	1.628339e+00
301           	1.628311e+00
302           	1.628316e+00
303           	1.628367e+00
304           	1.628451e+00
305           	1.628510e+00
306           	1.628514e+00
307           	1.628454e+00
308           	1.628349e+00
309           	1.628250e+00
310           	1.628216e+00
311           	1.628270e+00
312           	1.628402e+00
313           	1.628562e+00
314           	1.628675e+00
315           	1.628725e+00
316           	1.628721e+00
317           	1.628651e+00
318           	1.628533e+00
319           	1.628365e+00
320           	1.628199e+00
321           	1.628093e+00
322           	1.628040e+00
323           	1.628030e+00
324           	1.628037e+00
325           	1.628047e+00
326           	1.628068e+00
327           	1.628130e+00
328           	1.628224e+00
329           	1.628348e+00
330           	1.628479e+00
331           	1.628587e+00
332           	1.628665e+00
333           	1.628721e+00
334           	1.628756e+00
335           	1.628744e+00
336           	1.628669e+00
337           	1.628539e+00
338           	1.628406e+00
339           	1.628279e+00
340           	1.628177e+00
341           	1.628087e+00
342           	1.628008e+00
343           	1.627926e+00
344           	1.627849e+00
345           	1.627837e+00
346           	1.627895e+00
347           	1.628036e+00
348           	1.628232e+00
349           	1.628442e+00
350           	1.628633e+00
351           	1.628785e+00
352           	1.628887e+00
353           	1.628921e+00
354           	1.628889e+00
355           	1.628810e+00
356           	1.628735e+00
357           	1.628655e+00
358           	1.628547e+00
359           	1.628407e+00
360           	1.628234e+00
361           	1.628054e+00
362           	1.627897e+00
363           	1.627786e+00
364           	1.627736e+00
365           	1.627776e+00
366           	1.627897e+00
367           	1.628049e+00
368           	1.628215e+00
369           	1.628364e+00
370           	1.628484e+00
371           	1.628568e+00
372           	1.628622e+00
373           	1.628661e+00
374           	1.628686e+00
375           	1.628687e+00
376           	1.628673e+00
377           	1.628646e+00
378           	1.628604e+00
379           	1.628530e+00
380           	1.628385e+00
381           	1.628181e+00
382           	1.627969e+00
383           	1.627821e+00
384           	1.627769e+00
385           	1.627816e+00
386           	1.627940e+00
387           	1.628107e+00
388           	1.628274e+00
389           	1.628439e+00
390           	1.628590e+00
391           	1.628695e+00
392           	1.628730e+00
393           	1.628689e+00
394           	1.628620e+00
395           	1.628566e+00
396           	1.628531e+00
397           	1.628517e+00
398           	1.628478e+00
399           	1.628401e+00
400           	1.628306e+00
401           	1.628204e+00
402           	1.628118e+00
403           	1.628074e+00
404           	1.628065e+00
405           	1.628086e+00
406           	1.628133e+00
407           	1.628188e+00
408           	1.628251e+00
409           	1.628307e+00
410           	1.628368e+00
411           	1.628447e+00
412           	1.628530e+00
413           	1.628591e+00
414           	1.628612e+00
415           	1.628572e+00
416           	1.628492e+00
417           	1.628406e+00
418           	1.628364e+00
419           	1.628346e+00
420           	1.628337e+00
421           	1.628319e+00
422           	1.628308e+00
423           	1.628295e+00
424           	1.628273e+00
425           	1.628244e+00
426           	1.628203e+00
427           	1.628182e+00
428           	1.628214e+00
429           	1.628294e+00
430           	1.628395e+00
431           	1.628495e+00
432           	1.628560e+00
433           	1.628596e+00
434           	1.628598e+00
435           	1.628562e+00
436           	1.628498e+00
437           	1.628449e+00
438           	1.628433e+00
439           	1.628448e+00
440           	1.628473e+00
441           	1.628483e+00
442           	1.628465e+00
443           	1.628436e+00
444           	1.628388e+00
445           	1.628339e+00
446           	1.628341e+00
447           	1.628371e+00
448           	1.628399e+00
449           	1.628419e+00
450           	1.628442e+00
451           	1.628453e+00
452           	1.628438e+00
453           	1.628399e+00
454           	1.628341e+00
455           	1.628307e+00
456           	1.628299e+00
457           	1.628298e+00
458           	1.628312e+00
459           	1.628358e+00
460           	1.628421e+00
461           	1.628476e+00
462           	1.628496e+00
463           	1.628485e+00
464           	1.628444e+00
465           	1.628406e+00
466           	1.628408e+00
467           	1.628439e+00
468           	1.628475e+00
469           	1.628471e+00
470           	1.628437e+00
471           	1.628393e+00
472           	1.628324e+00
473           	1.628245e+00
474           	1.628162e+00
475           	1.628135e+00
476           	1.628186e+00
477           	1.628303e+00
478           	1.628444e+00
479           	1.628540e+00
480           	1.628571e+00
481           	1.628542e+00
482           	1.628494e+00
483           	1.628458e+00
484           	1.628441e+00
485           	1.628457e+00
486           	1.628490e+00
487           	1.628528e+00
488           	1.628548e+00
489           	1.628547e+00
490           	1.628500e+00
491           	1.628405e+00
492           	1.628297e+00
493           	1.628230e+00
494           	1.628243e+00
495           	1.628324e+00
496           	1.628409e+00
497           	1.628454e+00
498           	1.628467e+00
499           	1.628476e+00
500           	1.628493e+00
501           	1.628513e+00
502           	1.628540e+00
503           	1.628569e+00
504           	1.628573e+00
505           	1.628537e+00
506           	1.628482e+00
507           	1.628419e+00
508           	1.628366e+00
509           	1.628339e+00
510           	1.628337e+00
511           	1.628347e+00
512           	1.628358e+00
513           	1.628377e+00
514           	1.628375e+00
515           	1.628327e+00
516           	1.628236e+00
517           	1.628150e+00
518           	1.628130e+00
519           	1.628193e+00
520           	1.628290e+00
521           	1.628383e+00
522           	1.628475e+00
523           	1.628553e+00
524           	1.628579e+00
525           	1.628565e+00
526           	1.628530e+00
527           	1.628510e+00
528           	1.628505e+00
529           	1.628504e+00
530           	1.628486e+00
531           	1.628438e+00
532           	1.628338e+00
533           	1.628217e+00
534           	1.628119e+00
535           	1.628066e+00
536           	1.628070e+00
537           	1.628112e+00
538           	1.628172e+00
539           	1.628224e+00
540           	1.628237e+00
541           	1.628225e+00
542           	1.628197e+00
543           	1.628206e+00
544           	1.628264e+00
545           	1.628373e+00
546           	1.628494e+00
547           	1.628598e+00
548           	1.628648e+00
549           	1.628665e+00
550           	1.628642e+00
551           	1.628583e+00
552           	1.628492e+00
553           	1.628387e+00
554           	1.628297e+00
555           	1.628250e+00
556           	1.628231e+00
557           	1.628205e+00
558           	1.628177e+00
559           	1.628161e+00
560           	1.628166e+00
561           	1.628199e+00
562           	1.628256e+00
563           	1.628327e+00
564           	1.628418e+00
565           	1.628496e+00
566           	1.628540e+00
567           	1.628541e+00
568           	1.628514e+00
569           	1.628436e+00
570           	1.628333e+00
571           	1.628264e+00
572           	1.628258e+00
573           	1.628321e+00
574           	1.628391e+00
575           	1.628431e+00
576           	1.628443e+00
577           	1.628442e+00
578           	1.628420e+00
579           	1.628382e+00
580           	1.628324e+00
581           	1.628284e+00
582           	1.628297e+00
583           	1.628334e+00
584           	1.628370e+00
585           	1.628397e+00
586           	1.628417e+00
587           	1.628425e+00
588           	1.628421e+00
589           	1.628407e+00
590           	1.628394e+00
591           	1.628401e+00
592           	1.628416e+00
593           	1.628439e+00
594           	1.628450e+00
595           	1.628445e+00
596           	1.628420e+00
597           	1.628379e+00
598           	1.628321e+00
599           	1.628269e+00
600           	1.628232e+00
601           	1.628210e+00
602           	1.628204e+00
603           	1.628228e+00
604           	1.628295e+00
605           	1.628371e+00
606           	1.628451e+00
607           	1.628515e+00
608           	1.628537e+00
609           	1.628515e+00
610           	1.628463e+00
611           	1.628392e+00
612           	1.628334e+00
613           	1.628330e+00
614           	1.628349e+00
615           	1.628396e+00
616           	1.628457e+00
617           	1.628516e+00
618           	1.628543e+00
619           	1.628533e+00
620           	1.628507e+00
621           	1.628479e+00
622           	1.628435e+00
623           	1.628362e+00
624           	1.628315e+00
625           	1.628303e+00
626           	1.628328e+00
627           	1.628378e+00
628           	1.628438e+00
629           	1.628501e+00
630           	1.628550e+00
631           	1.628560e+00
632           	1.628554e+00
633           	1.628561e+00
634           	1.628598e+00
635           	1.628659e+00
636           	1.628686e+00
637           	1.628647e+00
638           	1.628556e+00
639           	1.628421e+00
640           	1.628288e+00
641           	1.628185e+00
642           	1.628141e+00
643           	1.628170e+00
644           	1.628266e+00
645           	1.628417e+00
646           	1.628559e+00
647           	1.628617e+00
648           	1.628576e+00
649           	1.628473e+00
650           	1.628350e+00
651           	1.628245e+00
652           	1.628209e+00
653           	1.628244e+00
654           	1.628327e+00
655           	1.628412e+00
656           	1.628463e+00
657           	1.628478e+00
658           	1.628436e+00
659           	1.628382e+00
660           	1.628344e+00
661           	1.628329e+00
662           	1.628350e+00
663           	1.628405e+00
664           	1.628476e+00
665           	1.628546e+00
666           	1.628600e+00
667           	1.628588e+00
668           	1.628496e+00
669           	1.628364e+00
670           	1.628233e+00
671           	1.628148e+00
672           	1.628114e+00
673           	1.628132e+00
674           	1.628212e+00
675           	1.628339e+00
676           	1.628473e+00
677           	1.628566e+00
678           	1.628594e+00
679           	1.628564e+00
680           	1.628501e+00
681           	1.628414e+00
682           	1.628311e+00
683           	1.628228e+00
684           	1.628185e+00
685           	1.628191e+00
686           	1.628213e+00
687           	1.628253e+00
688           	1.628293e+00
689           	1.628302e+00
690           	1.628293e+00
691           	1.628280e+00
692           	1.628282e+00
693           	1.628306e+00
694           	1.628331e+00
695           	1.628364e+00
696           	1.628402e+00
697           	1.628447e+00
698           	1.628477e+00
699           	1.628474e+00
700           	1.628436e+00
701           	1.628391e+00
702           	1.628349e+00
703           	1.628324e+00
704           	1.628333e+00
705           	1.628386e+00
706           	1.628466e+00
707           	1.628565e+00
708           	1.628637e+00
709           	1.628665e+00
710           	1.628618e+00
711           	1.628499e+00
712           	1.628328e+00
713           	1.628168e+00
714           	1.628054e+00
715           	1.628017e+00
716           	1.628071e+00
717           	1.628197e+00
718           	1.628374e+00
719           	1.628535e+00
720           	1.628623e+00
721           	1.628617e+00
722           	1.628528e+00
723           	1.628411e+00
724           	1.628350e+00
725           	1.628336e+00
726           	1.628338e+00
727           	1.628355e+00
728           	1.628362e+00
729           	1.628369e+00
730           	1.628364e+00
731           	1.628319e+00
732           	1.628266e+00
733           	1.628259e+00
734           	1.628313e+00
735           	1.628419e+00
736           	1.628535e+00
737           	1.628597e+00
738           	1.628576e+00
739           	1.628489e+00
740           	1.628383e+00
741           	1.628322e+00
742           	1.628324e+00
743           	1.628370e+00
744           	1.628434e+00
745           	1.628484e+00
746           	1.628508e+00
747           	1.628498e+00
748           	1.628462e+00
749           	1.628424e+00
750           	1.628385e+00
751           	1.628349e+00
752           	1.628321e+00
753           	1.628285e+00
754           	1.628249e+00
755           	1.628232e+00
756           	1.628249e+00
757           	1.628289e+00
758           	1.628336e+00
759           	1.628404e+00
760           	1.628476e+00
761           	1.628511e+00
762           	1.628494e+00
763           	1.628442e+00
764           	1.628381e+00
765           	1.628340e+00
766           	1.628315e+00
767           	1.628321e+00
768           	1.628353e+00
769           	1.628398e+00
770           	1.628444e+00
771           	1.628476e+00
772           	1.628493e+00
773           	1.628498e+00
774           	1.628496e+00
775           	1.628460e+00
776           	1.628390e+00
777           	1.628307e+00
778           	1.628215e+00
779           	1.628131e+00
780           	1.628088e+00
781           	1.628109e+00
782           	1.628163e+00
783           	1.628218e+00
784           	1.628269e+00
785           	1.628302e+00
786           	1.628297e+00
787           	1.628242e+00
788           	1.628173e+00
789           	1.628131e+00
790           	1.628151e+00
791           	1.628248e+00
792           	1.628392e+00
793           	1.628504e+00
794           	1.628560e+00
795           	1.628573e+00
796           	1.628537e+00
797           	1.628500e+00
798           	1.628475e+00
799           	1.628439e+00
800           	1.628374e+00
