# Region      : cellZone box
# Cells       : 2720208
# Volume      : 5.251462e-06
# Time        	volAverage(U)
1             	4.969836e-01
2             	2.720406e+00
3             	4.039823e+00
4             	4.254208e+00
5             	3.627249e+00
6             	2.572768e+00
7             	1.667724e+00
8             	9.531000e-01
9             	6.469803e-01
10            	7.170321e-01
11            	1.021307e+00
12            	1.401033e+00
13            	1.725544e+00
14            	1.917209e+00
15            	1.964985e+00
16            	1.900744e+00
17            	1.777932e+00
18            	1.649398e+00
19            	1.553926e+00
20            	1.508052e+00
21            	1.509389e+00
22            	1.542973e+00
23            	1.589290e+00
24            	1.631345e+00
25            	1.658881e+00
26            	1.669058e+00
27            	1.664733e+00
28            	1.651912e+00
29            	1.637207e+00
30            	1.625681e+00
31            	1.619797e+00
32            	1.619623e+00
33            	1.623416e+00
34            	1.628712e+00
35            	1.633294e+00
36            	1.635785e+00
37            	1.635757e+00
38            	1.633676e+00
39            	1.630567e+00
40            	1.627535e+00
41            	1.625528e+00
42            	1.625072e+00
43            	1.626018e+00
44            	1.627840e+00
45            	1.629801e+00
46            	1.631151e+00
47            	1.631445e+00
48            	1.630643e+00
49            	1.629042e+00
50            	1.627158e+00
51            	1.625498e+00
52            	1.624417e+00
53            	1.624143e+00
54            	1.624641e+00
55            	1.625689e+00
56            	1.626998e+00
57            	1.628252e+00
58            	1.629157e+00
59            	1.629573e+00
60            	1.629501e+00
61            	1.629065e+00
62            	1.628427e+00
63            	1.627729e+00
64            	1.627080e+00
65            	1.626554e+00
66            	1.626213e+00
67            	1.626111e+00
68            	1.626292e+00
69            	1.626724e+00
70            	1.627260e+00
71            	1.627775e+00
72            	1.628209e+00
73            	1.628489e+00
74            	1.628517e+00
75            	1.628304e+00
76            	1.628031e+00
77            	1.627844e+00
78            	1.627816e+00
79            	1.627939e+00
80            	1.628087e+00
81            	1.628127e+00
82            	1.627993e+00
83            	1.627708e+00
84            	1.627359e+00
85            	1.627070e+00
86            	1.626952e+00
87            	1.627058e+00
88            	1.627377e+00
89            	1.627804e+00
90            	1.628220e+00
91            	1.628548e+00
92            	1.628747e+00
93            	1.628792e+00
94            	1.628699e+00
95            	1.628533e+00
96            	1.628405e+00
97            	1.628334e+00
98            	1.628288e+00
99            	1.628275e+00
100           	1.628273e+00
101           	1.628254e+00
102           	1.628252e+00
103           	1.628282e+00
104           	1.628313e+00
105           	1.628364e+00
106           	1.628461e+00
107           	1.628604e+00
108           	1.628764e+00
109           	1.628885e+00
110           	1.628936e+00
111           	1.628883e+00
112           	1.628697e+00
113           	1.628405e+00
114           	1.628121e+00
115           	1.627942e+00
116           	1.627910e+00
117           	1.628006e+00
118           	1.628139e+00
119           	1.628199e+00
120           	1.628149e+00
121           	1.628004e+00
122           	1.627803e+00
123           	1.627622e+00
124           	1.627534e+00
125           	1.627600e+00
126           	1.627810e+00
127           	1.628107e+00
128           	1.628417e+00
129           	1.628677e+00
130           	1.628863e+00
131           	1.628928e+00
132           	1.628884e+00
133           	1.628790e+00
134           	1.628686e+00
135           	1.628601e+00
136           	1.628526e+00
137           	1.628421e+00
138           	1.628275e+00
139           	1.628074e+00
140           	1.627866e+00
141           	1.627703e+00
142           	1.627611e+00
143           	1.627611e+00
144           	1.627708e+00
145           	1.627885e+00
146           	1.628109e+00
147           	1.628359e+00
148           	1.628580e+00
149           	1.628716e+00
150           	1.628721e+00
151           	1.628604e+00
152           	1.628412e+00
153           	1.628215e+00
154           	1.628056e+00
155           	1.627962e+00
156           	1.627919e+00
157           	1.627919e+00
158           	1.627958e+00
159           	1.628041e+00
160           	1.628154e+00
161           	1.628283e+00
162           	1.628397e+00
163           	1.628465e+00
164           	1.628475e+00
165           	1.628424e+00
166           	1.628321e+00
167           	1.628197e+00
168           	1.628103e+00
169           	1.628075e+00
170           	1.628122e+00
171           	1.628233e+00
172           	1.628398e+00
173           	1.628578e+00
174           	1.628702e+00
175           	1.628721e+00
176           	1.628636e+00
177           	1.628456e+00
178           	1.628251e+00
179           	1.628090e+00
180           	1.628020e+00
181           	1.628025e+00
182           	1.628099e+00
183           	1.628204e+00
184           	1.628293e+00
185           	1.628368e+00
186           	1.628421e+00
187           	1.628460e+00
188           	1.628513e+00
189           	1.628579e+00
190           	1.628640e+00
191           	1.628675e+00
192           	1.628662e+00
193           	1.628598e+00
194           	1.628506e+00
195           	1.628399e+00
196           	1.628318e+00
197           	1.628274e+00
198           	1.628253e+00
199           	1.628236e+00
200           	1.628220e+00
201           	1.628227e+00
202           	1.628289e+00
203           	1.628393e+00
204           	1.628510e+00
205           	1.628613e+00
206           	1.628679e+00
207           	1.628698e+00
208           	1.628685e+00
209           	1.628649e+00
210           	1.628588e+00
211           	1.628503e+00
212           	1.628435e+00
213           	1.628391e+00
214           	1.628366e+00
215           	1.628351e+00
216           	1.628371e+00
217           	1.628406e+00
218           	1.628452e+00
219           	1.628509e+00
220           	1.628546e+00
221           	1.628566e+00
222           	1.628584e+00
223           	1.628594e+00
224           	1.628577e+00
225           	1.628532e+00
226           	1.628494e+00
227           	1.628486e+00
228           	1.628511e+00
229           	1.628568e+00
230           	1.628628e+00
231           	1.628683e+00
232           	1.628744e+00
233           	1.628799e+00
234           	1.628822e+00
235           	1.628825e+00
236           	1.628839e+00
237           	1.628888e+00
238           	1.628952e+00
239           	1.628985e+00
240           	1.629011e+00
241           	1.629057e+00
242           	1.629092e+00
243           	1.629071e+00
244           	1.628947e+00
245           	1.628739e+00
246           	1.628486e+00
247           	1.628281e+00
248           	1.628165e+00
249           	1.628156e+00
250           	1.628250e+00
251           	1.628399e+00
252           	1.628564e+00
253           	1.628746e+00
254           	1.628916e+00
255           	1.629020e+00
256           	1.629041e+00
257           	1.628995e+00
258           	1.628930e+00
259           	1.628854e+00
260           	1.628763e+00
261           	1.628680e+00
262           	1.628613e+00
263           	1.628596e+00
264           	1.628642e+00
265           	1.628725e+00
266           	1.628838e+00
267           	1.628971e+00
268           	1.629072e+00
269           	1.629126e+00
270           	1.629146e+00
271           	1.629143e+00
272           	1.629114e+00
273           	1.629043e+00
274           	1.628916e+00
275           	1.628779e+00
276           	1.628656e+00
277           	1.628535e+00
278           	1.628426e+00
279           	1.628343e+00
280           	1.628317e+00
281           	1.628376e+00
282           	1.628497e+00
283           	1.628643e+00
284           	1.628804e+00
285           	1.628947e+00
286           	1.629069e+00
287           	1.629168e+00
288           	1.629193e+00
289           	1.629139e+00
290           	1.628988e+00
291           	1.628757e+00
292           	1.628499e+00
293           	1.628285e+00
294           	1.628189e+00
295           	1.628252e+00
296           	1.628453e+00
297           	1.628714e+00
298           	1.628986e+00
299           	1.629196e+00
300           	1.629264e+00
301           	1.629177e+00
302           	1.629022e+00
303           	1.628878e+00
304           	1.628803e+00
305           	1.628823e+00
306           	1.628879e+00
307           	1.628886e+00
308           	1.628811e+00
309           	1.628661e+00
310           	1.628491e+00
311           	1.628386e+00
312           	1.628368e+00
313           	1.628450e+00
314           	1.628639e+00
315           	1.628854e+00
316           	1.629009e+00
317           	1.629078e+00
318           	1.629059e+00
319           	1.629007e+00
320           	1.628900e+00
321           	1.628794e+00
322           	1.628709e+00
323           	1.628653e+00
324           	1.628634e+00
325           	1.628620e+00
326           	1.628637e+00
327           	1.628662e+00
328           	1.628673e+00
329           	1.628694e+00
330           	1.628740e+00
331           	1.628806e+00
332           	1.628880e+00
333           	1.628961e+00
334           	1.628983e+00
335           	1.628943e+00
336           	1.628837e+00
337           	1.628728e+00
338           	1.628636e+00
339           	1.628591e+00
340           	1.628566e+00
341           	1.628491e+00
342           	1.628402e+00
343           	1.628371e+00
344           	1.628434e+00
345           	1.628544e+00
346           	1.628715e+00
347           	1.628936e+00
348           	1.629119e+00
349           	1.629190e+00
350           	1.629152e+00
351           	1.629048e+00
352           	1.628914e+00
353           	1.628746e+00
354           	1.628553e+00
355           	1.628387e+00
356           	1.628276e+00
357           	1.628248e+00
358           	1.628337e+00
359           	1.628526e+00
360           	1.628786e+00
361           	1.629025e+00
362           	1.629165e+00
363           	1.629210e+00
364           	1.629157e+00
365           	1.629035e+00
366           	1.628870e+00
367           	1.628726e+00
368           	1.628629e+00
369           	1.628601e+00
370           	1.628605e+00
371           	1.628626e+00
372           	1.628637e+00
373           	1.628669e+00
374           	1.628746e+00
375           	1.628837e+00
376           	1.628922e+00
377           	1.628989e+00
378           	1.629006e+00
379           	1.628943e+00
380           	1.628795e+00
381           	1.628619e+00
382           	1.628485e+00
383           	1.628419e+00
384           	1.628414e+00
385           	1.628433e+00
386           	1.628477e+00
387           	1.628542e+00
388           	1.628603e+00
389           	1.628639e+00
390           	1.628667e+00
391           	1.628670e+00
392           	1.628670e+00
393           	1.628678e+00
394           	1.628715e+00
395           	1.628789e+00
396           	1.628880e+00
397           	1.628926e+00
398           	1.628921e+00
399           	1.628909e+00
400           	1.628923e+00
401           	1.628919e+00
402           	1.628865e+00
403           	1.628776e+00
404           	1.628668e+00
405           	1.628586e+00
406           	1.628494e+00
407           	1.628387e+00
408           	1.628257e+00
409           	1.628144e+00
410           	1.628136e+00
411           	1.628237e+00
412           	1.628477e+00
413           	1.628741e+00
414           	1.628946e+00
415           	1.629060e+00
416           	1.629095e+00
417           	1.629080e+00
418           	1.629024e+00
419           	1.628923e+00
420           	1.628816e+00
421           	1.628736e+00
422           	1.628687e+00
423           	1.628642e+00
424           	1.628606e+00
425           	1.628561e+00
426           	1.628550e+00
427           	1.628572e+00
428           	1.628642e+00
429           	1.628721e+00
430           	1.628831e+00
431           	1.628942e+00
432           	1.629012e+00
433           	1.628995e+00
434           	1.628888e+00
435           	1.628724e+00
436           	1.628583e+00
437           	1.628511e+00
438           	1.628508e+00
439           	1.628554e+00
440           	1.628639e+00
441           	1.628759e+00
442           	1.628883e+00
443           	1.628946e+00
444           	1.628970e+00
445           	1.629027e+00
446           	1.629107e+00
447           	1.629176e+00
448           	1.629201e+00
449           	1.629200e+00
450           	1.629130e+00
451           	1.629018e+00
452           	1.628893e+00
453           	1.628751e+00
454           	1.628573e+00
455           	1.628441e+00
456           	1.628392e+00
457           	1.628424e+00
458           	1.628492e+00
459           	1.628556e+00
460           	1.628617e+00
461           	1.628684e+00
462           	1.628738e+00
463           	1.628790e+00
464           	1.628835e+00
465           	1.628835e+00
466           	1.628783e+00
467           	1.628750e+00
468           	1.628757e+00
469           	1.628801e+00
470           	1.628888e+00
471           	1.628990e+00
472           	1.629040e+00
473           	1.628999e+00
474           	1.628865e+00
475           	1.628685e+00
476           	1.628504e+00
477           	1.628364e+00
478           	1.628293e+00
479           	1.628309e+00
480           	1.628423e+00
481           	1.628609e+00
482           	1.628795e+00
483           	1.628939e+00
484           	1.629018e+00
485           	1.629027e+00
486           	1.628957e+00
487           	1.628838e+00
488           	1.628733e+00
489           	1.628669e+00
490           	1.628645e+00
491           	1.628658e+00
492           	1.628725e+00
493           	1.628813e+00
494           	1.628861e+00
495           	1.628845e+00
496           	1.628727e+00
497           	1.628569e+00
498           	1.628444e+00
499           	1.628395e+00
500           	1.628443e+00
501           	1.628560e+00
502           	1.628704e+00
503           	1.628867e+00
504           	1.628993e+00
505           	1.629055e+00
506           	1.629040e+00
507           	1.629003e+00
508           	1.628942e+00
509           	1.628829e+00
510           	1.628714e+00
511           	1.628614e+00
512           	1.628563e+00
513           	1.628544e+00
514           	1.628531e+00
515           	1.628515e+00
516           	1.628511e+00
517           	1.628544e+00
518           	1.628632e+00
519           	1.628726e+00
520           	1.628825e+00
521           	1.628892e+00
522           	1.628890e+00
523           	1.628810e+00
524           	1.628689e+00
525           	1.628588e+00
526           	1.628510e+00
527           	1.628452e+00
528           	1.628433e+00
529           	1.628490e+00
530           	1.628641e+00
531           	1.628828e+00
532           	1.628988e+00
533           	1.629078e+00
534           	1.629119e+00
535           	1.629184e+00
536           	1.629236e+00
537           	1.629166e+00
538           	1.628956e+00
539           	1.628668e+00
540           	1.628372e+00
541           	1.628136e+00
542           	1.628037e+00
543           	1.628077e+00
544           	1.628268e+00
545           	1.628555e+00
546           	1.628891e+00
547           	1.629169e+00
548           	1.629353e+00
549           	1.629432e+00
550           	1.629403e+00
551           	1.629259e+00
552           	1.629050e+00
553           	1.628803e+00
554           	1.628526e+00
555           	1.628284e+00
556           	1.628137e+00
557           	1.628079e+00
558           	1.628118e+00
559           	1.628246e+00
560           	1.628447e+00
561           	1.628690e+00
562           	1.628898e+00
563           	1.629013e+00
564           	1.629039e+00
565           	1.628968e+00
566           	1.628838e+00
567           	1.628674e+00
568           	1.628514e+00
569           	1.628425e+00
570           	1.628430e+00
571           	1.628513e+00
572           	1.628647e+00
573           	1.628813e+00
574           	1.628960e+00
575           	1.629027e+00
576           	1.629042e+00
577           	1.629055e+00
578           	1.629094e+00
579           	1.629121e+00
580           	1.629116e+00
581           	1.629068e+00
582           	1.628987e+00
583           	1.628843e+00
584           	1.628676e+00
585           	1.628529e+00
586           	1.628427e+00
587           	1.628369e+00
588           	1.628362e+00
589           	1.628446e+00
590           	1.628606e+00
591           	1.628791e+00
592           	1.628920e+00
593           	1.628950e+00
594           	1.628904e+00
595           	1.628800e+00
596           	1.628643e+00
597           	1.628500e+00
598           	1.628462e+00
599           	1.628563e+00
600           	1.628716e+00
601           	1.628857e+00
602           	1.628917e+00
603           	1.628920e+00
604           	1.628882e+00
605           	1.628825e+00
606           	1.628767e+00
607           	1.628756e+00
608           	1.628776e+00
609           	1.628807e+00
610           	1.628850e+00
611           	1.628875e+00
612           	1.628899e+00
613           	1.628913e+00
614           	1.628927e+00
615           	1.628962e+00
616           	1.629012e+00
617           	1.629045e+00
618           	1.628991e+00
619           	1.628882e+00
620           	1.628772e+00
621           	1.628683e+00
622           	1.628624e+00
623           	1.628622e+00
624           	1.628668e+00
625           	1.628750e+00
626           	1.628871e+00
627           	1.628972e+00
628           	1.629031e+00
629           	1.629055e+00
630           	1.629048e+00
631           	1.628994e+00
632           	1.628909e+00
633           	1.628820e+00
634           	1.628745e+00
635           	1.628691e+00
636           	1.628689e+00
637           	1.628738e+00
638           	1.628829e+00
639           	1.628896e+00
640           	1.628898e+00
641           	1.628848e+00
642           	1.628835e+00
643           	1.628887e+00
644           	1.628973e+00
645           	1.629014e+00
646           	1.629014e+00
647           	1.628983e+00
648           	1.628940e+00
649           	1.628916e+00
650           	1.628902e+00
651           	1.628868e+00
652           	1.628804e+00
653           	1.628716e+00
654           	1.628679e+00
655           	1.628701e+00
656           	1.628765e+00
657           	1.628828e+00
658           	1.628905e+00
659           	1.628979e+00
660           	1.629046e+00
661           	1.629076e+00
662           	1.629067e+00
663           	1.629011e+00
664           	1.628933e+00
665           	1.628893e+00
666           	1.628885e+00
667           	1.628888e+00
668           	1.628854e+00
669           	1.628793e+00
670           	1.628735e+00
671           	1.628682e+00
672           	1.628652e+00
673           	1.628697e+00
674           	1.628798e+00
675           	1.628933e+00
676           	1.629053e+00
677           	1.629135e+00
678           	1.629200e+00
679           	1.629268e+00
680           	1.629278e+00
681           	1.629187e+00
682           	1.629016e+00
683           	1.628827e+00
684           	1.628670e+00
685           	1.628569e+00
686           	1.628518e+00
687           	1.628524e+00
688           	1.628612e+00
689           	1.628755e+00
690           	1.628866e+00
691           	1.628916e+00
692           	1.628952e+00
693           	1.629002e+00
694           	1.629050e+00
695           	1.629086e+00
696           	1.629108e+00
697           	1.629106e+00
698           	1.629048e+00
699           	1.628961e+00
700           	1.628860e+00
701           	1.628750e+00
702           	1.628683e+00
703           	1.628692e+00
704           	1.628758e+00
705           	1.628849e+00
706           	1.628927e+00
707           	1.628951e+00
708           	1.628931e+00
709           	1.628884e+00
710           	1.628802e+00
711           	1.628746e+00
712           	1.628720e+00
713           	1.628730e+00
714           	1.628799e+00
715           	1.628923e+00
716           	1.629041e+00
717           	1.629114e+00
718           	1.629098e+00
719           	1.629077e+00
720           	1.629086e+00
721           	1.629125e+00
722           	1.629169e+00
723           	1.629179e+00
724           	1.629119e+00
725           	1.629007e+00
726           	1.628892e+00
727           	1.628771e+00
728           	1.628667e+00
729           	1.628625e+00
730           	1.628686e+00
731           	1.628808e+00
732           	1.628922e+00
733           	1.629005e+00
734           	1.629063e+00
735           	1.629075e+00
736           	1.629001e+00
737           	1.628881e+00
738           	1.628780e+00
739           	1.628684e+00
740           	1.628587e+00
741           	1.628521e+00
742           	1.628534e+00
743           	1.628627e+00
744           	1.628803e+00
745           	1.628979e+00
746           	1.629082e+00
747           	1.629108e+00
748           	1.629119e+00
749           	1.629118e+00
750           	1.629114e+00
751           	1.629115e+00
752           	1.629068e+00
753           	1.628962e+00
754           	1.628849e+00
755           	1.628747e+00
756           	1.628700e+00
757           	1.628708e+00
758           	1.628708e+00
759           	1.628699e+00
760           	1.628695e+00
761           	1.628668e+00
762           	1.628668e+00
763           	1.628728e+00
764           	1.628815e+00
765           	1.628914e+00
766           	1.628987e+00
767           	1.628987e+00
768           	1.628912e+00
769           	1.628788e+00
770           	1.628679e+00
771           	1.628609e+00
772           	1.628616e+00
773           	1.628753e+00
774           	1.628975e+00
775           	1.629207e+00
776           	1.629370e+00
777           	1.629420e+00
778           	1.629347e+00
779           	1.629167e+00
780           	1.628945e+00
781           	1.628750e+00
782           	1.628590e+00
783           	1.628501e+00
784           	1.628506e+00
785           	1.628614e+00
786           	1.628795e+00
787           	1.628980e+00
788           	1.629126e+00
789           	1.629206e+00
790           	1.629214e+00
791           	1.629121e+00
792           	1.628942e+00
793           	1.628752e+00
794           	1.628583e+00
795           	1.628466e+00
796           	1.628428e+00
797           	1.628488e+00
798           	1.628637e+00
799           	1.628834e+00
800           	1.629067e+00
