# Region      : cellZone box
# Cells       : 2628800
# Volume      : 5.249270e-06
# Time        	volAverage(vorticity)
1             	4.522388e-05
2             	2.746168e-04
3             	9.699287e-04
4             	1.050969e-03
5             	2.907026e-03
6             	4.303535e-03
7             	5.889911e-03
8             	7.522538e-03
9             	7.319226e-03
10            	7.724261e-03
11            	6.889668e-03
12            	9.334882e-03
13            	1.333249e-02
14            	1.732857e-02
15            	2.045863e-02
16            	2.313428e-02
17            	2.500451e-02
18            	2.687320e-02
19            	2.817469e-02
20            	2.876938e-02
21            	2.922093e-02
22            	2.937641e-02
23            	2.946039e-02
24            	2.875058e-02
25            	2.732644e-02
26            	2.502079e-02
27            	2.210982e-02
28            	1.904315e-02
29            	1.649693e-02
30            	1.494522e-02
31            	1.494684e-02
32            	1.666685e-02
33            	2.018885e-02
34            	2.515067e-02
35            	3.110916e-02
36            	3.749321e-02
37            	4.362738e-02
38            	4.868284e-02
39            	5.180177e-02
40            	5.285092e-02
41            	5.240337e-02
42            	5.116402e-02
43            	4.937159e-02
44            	4.676472e-02
45            	4.311892e-02
46            	3.839516e-02
47            	3.280367e-02
48            	2.683169e-02
49            	2.117136e-02
50            	1.641147e-02
51            	1.307509e-02
52            	1.119338e-02
53            	1.041244e-02
54            	1.033950e-02
55            	1.074432e-02
56            	1.129968e-02
57            	1.163428e-02
58            	1.168463e-02
59            	1.167408e-02
60            	1.107580e-02
61            	9.761604e-03
62            	8.258283e-03
63            	7.127815e-03
64            	6.752322e-03
65            	7.147377e-03
66            	8.225289e-03
67            	9.738500e-03
68            	1.113702e-02
69            	1.215771e-02
70            	1.259798e-02
71            	1.247492e-02
72            	1.187232e-02
73            	1.094910e-02
74            	9.785518e-03
75            	8.565487e-03
76            	7.711920e-03
77            	7.281936e-03
78            	7.337712e-03
79            	7.683604e-03
80            	8.430919e-03
81            	9.383779e-03
82            	1.014758e-02
83            	1.089969e-02
84            	1.131999e-02
85            	1.115653e-02
86            	1.003987e-02
87            	7.575118e-03
88            	4.690586e-03
89            	2.990250e-03
90            	4.579418e-03
91            	7.345183e-03
92            	9.673565e-03
93            	1.076032e-02
94            	1.077455e-02
95            	9.321462e-03
96            	6.929025e-03
97            	4.505856e-03
98            	3.526102e-03
99            	4.572814e-03
100           	5.941479e-03
101           	6.825781e-03
102           	6.906574e-03
103           	6.095039e-03
104           	4.446791e-03
105           	2.012878e-03
106           	9.258014e-04
107           	3.655927e-03
108           	5.876380e-03
109           	7.165318e-03
110           	7.680611e-03
111           	7.210319e-03
112           	5.899008e-03
113           	4.218959e-03
114           	3.718675e-03
115           	5.350022e-03
116           	7.374448e-03
117           	8.672456e-03
118           	8.923175e-03
119           	8.091843e-03
120           	6.246546e-03
121           	3.754878e-03
122           	2.027622e-03
123           	3.998751e-03
124           	7.194250e-03
125           	1.033411e-02
126           	1.314428e-02
127           	1.528765e-02
128           	1.624251e-02
129           	1.563077e-02
130           	1.338052e-02
131           	9.675796e-03
132           	4.983237e-03
133           	1.683859e-03
134           	8.569120e-03
135           	1.553430e-02
136           	2.139519e-02
137           	2.493091e-02
138           	2.617127e-02
139           	2.480913e-02
140           	2.069363e-02
141           	1.482286e-02
142           	7.636710e-03
143           	3.589775e-04
144           	7.254980e-03
145           	1.302306e-02
146           	1.760674e-02
147           	2.041620e-02
148           	2.170992e-02
149           	2.211864e-02
150           	2.216100e-02
151           	2.412452e-02
152           	2.707071e-02
153           	3.112504e-02
154           	3.578976e-02
155           	4.077285e-02
156           	4.447355e-02
157           	4.527529e-02
158           	4.086793e-02
159           	2.988497e-02
160           	1.413575e-02
161           	7.167823e-03
162           	3.152811e-02
163           	5.804106e-02
164           	7.907920e-02
165           	9.995109e-02
166           	1.177367e-01
167           	1.258736e-01
168           	1.190993e-01
169           	1.066491e-01
170           	8.735262e-02
171           	5.055469e-02
172           	6.825992e-04
173           	5.874893e-02
174           	1.180692e-01
175           	1.724937e-01
176           	2.136989e-01
177           	2.332589e-01
178           	2.304676e-01
179           	2.100746e-01
180           	1.774043e-01
181           	1.338181e-01
182           	8.151821e-02
183           	2.632788e-02
184           	4.271804e-02
185           	1.061669e-01
186           	1.657485e-01
187           	2.179382e-01
188           	2.648516e-01
189           	2.994192e-01
190           	3.171764e-01
191           	3.129719e-01
192           	2.800734e-01
193           	2.263293e-01
194           	1.589812e-01
195           	8.676712e-02
196           	2.583589e-02
197           	6.482412e-02
198           	1.195743e-01
199           	1.603838e-01
200           	1.880612e-01
201           	1.968092e-01
202           	1.861082e-01
203           	1.616641e-01
204           	1.230015e-01
205           	7.441708e-02
206           	2.468122e-02
207           	2.404444e-02
208           	6.797735e-02
209           	9.424187e-02
210           	1.038072e-01
211           	9.875209e-02
212           	8.398986e-02
213           	6.605593e-02
214           	4.709311e-02
215           	2.355600e-02
216           	2.306722e-02
217           	5.225487e-02
218           	7.732393e-02
219           	9.314696e-02
220           	9.730673e-02
221           	9.163156e-02
222           	8.052693e-02
223           	6.765607e-02
224           	5.403173e-02
225           	4.300420e-02
226           	4.005376e-02
227           	4.423079e-02
228           	5.174060e-02
229           	5.258948e-02
230           	3.879568e-02
231           	1.127197e-02
232           	2.855748e-02
233           	6.653468e-02
234           	9.216900e-02
235           	1.024398e-01
236           	9.431353e-02
237           	6.472474e-02
238           	1.804436e-02
239           	3.843242e-02
240           	9.153840e-02
241           	1.359234e-01
242           	1.611981e-01
243           	1.605987e-01
244           	1.357691e-01
245           	9.218772e-02
246           	3.870441e-02
247           	4.999068e-02
248           	1.158227e-01
249           	1.869757e-01
250           	2.543079e-01
251           	3.099400e-01
252           	3.527226e-01
253           	3.839936e-01
254           	4.042459e-01
255           	4.125777e-01
256           	4.110177e-01
257           	4.006366e-01
258           	3.754378e-01
259           	3.333983e-01
260           	2.760567e-01
261           	2.075443e-01
262           	1.511134e-01
263           	1.443150e-01
264           	1.726927e-01
265           	2.028218e-01
266           	2.170789e-01
267           	2.096498e-01
268           	1.910035e-01
269           	1.743573e-01
270           	1.661393e-01
271           	1.578861e-01
272           	1.418693e-01
273           	1.293940e-01
274           	1.519173e-01
275           	2.087557e-01
276           	2.739647e-01
277           	3.327571e-01
278           	3.744265e-01
279           	3.858716e-01
280           	3.622004e-01
281           	2.990436e-01
282           	2.004644e-01
283           	9.119674e-02
284           	1.479342e-01
285           	3.059409e-01
286           	4.522888e-01
287           	5.596101e-01
288           	6.183698e-01
289           	6.427815e-01
290           	6.437068e-01
291           	6.172416e-01
292           	5.638998e-01
293           	4.834689e-01
294           	3.831951e-01
295           	2.738099e-01
296           	1.796221e-01
297           	1.613386e-01
298           	2.183658e-01
299           	2.749919e-01
300           	3.004131e-01
301           	2.972778e-01
302           	2.792976e-01
303           	2.602744e-01
304           	2.505418e-01
305           	2.540006e-01
306           	2.630092e-01
307           	2.706464e-01
308           	2.792173e-01
309           	2.915259e-01
310           	3.105487e-01
311           	3.331705e-01
312           	3.533521e-01
313           	3.610370e-01
314           	3.461397e-01
315           	3.023796e-01
316           	2.291223e-01
317           	1.352107e-01
318           	3.557400e-02
319           	6.071704e-02
320           	1.340922e-01
321           	1.863461e-01
322           	2.271777e-01
323           	2.687776e-01
324           	3.174589e-01
325           	3.703634e-01
326           	4.165491e-01
327           	4.445997e-01
328           	4.486968e-01
329           	4.262516e-01
330           	3.769618e-01
331           	3.044652e-01
332           	2.153707e-01
333           	1.262607e-01
334           	1.013533e-01
335           	1.709368e-01
336           	2.612716e-01
337           	3.488340e-01
338           	4.256871e-01
339           	4.874988e-01
340           	5.406300e-01
341           	5.896176e-01
342           	6.220428e-01
343           	6.243312e-01
344           	5.850512e-01
345           	5.044418e-01
346           	3.907513e-01
347           	2.538748e-01
348           	1.186858e-01
349           	1.087054e-01
350           	2.142632e-01
351           	2.949852e-01
352           	3.277423e-01
353           	3.142672e-01
354           	2.775912e-01
355           	2.570852e-01
356           	2.883079e-01
357           	3.637574e-01
358           	4.469411e-01
359           	5.074474e-01
360           	5.304275e-01
361           	5.095242e-01
362           	4.404652e-01
363           	3.245935e-01
364           	1.690814e-01
365           	2.233070e-02
366           	2.280061e-01
367           	4.261361e-01
368           	5.835064e-01
369           	6.755041e-01
370           	6.882584e-01
371           	6.069855e-01
372           	4.384311e-01
373           	2.191426e-01
374           	9.853662e-02
375           	3.221134e-01
376           	5.491804e-01
377           	7.315399e-01
378           	8.528283e-01
379           	9.048270e-01
380           	8.839674e-01
381           	7.905679e-01
382           	6.353453e-01
383           	4.380105e-01
384           	2.139376e-01
385           	2.595644e-02
386           	2.530262e-01
387           	4.499397e-01
388           	6.059614e-01
389           	7.157889e-01
390           	7.754719e-01
391           	7.833710e-01
392           	7.500979e-01
393           	6.850026e-01
394           	5.953843e-01
395           	4.820593e-01
396           	3.526722e-01
397           	2.532231e-01
398           	2.739388e-01
399           	3.887702e-01
400           	5.107925e-01
401           	6.083293e-01
402           	6.695577e-01
403           	6.850562e-01
404           	6.484018e-01
405           	5.595233e-01
406           	4.388386e-01
407           	3.339670e-01
408           	3.070705e-01
409           	3.656896e-01
410           	4.425523e-01
411           	4.883217e-01
412           	4.834356e-01
413           	4.213352e-01
414           	3.110366e-01
415           	1.820082e-01
416           	1.100514e-01
417           	1.999838e-01
418           	3.286206e-01
419           	4.376908e-01
420           	5.083380e-01
421           	5.344575e-01
422           	5.218465e-01
423           	5.084123e-01
424           	5.335934e-01
425           	6.045848e-01
426           	6.939624e-01
427           	7.707807e-01
428           	8.123402e-01
429           	8.006609e-01
430           	7.271238e-01
431           	5.945259e-01
432           	4.260115e-01
433           	3.074426e-01
434           	4.001845e-01
435           	6.286309e-01
436           	8.641924e-01
437           	1.048160e+00
438           	1.142518e+00
439           	1.125376e+00
440           	9.947810e-01
441           	7.677307e-01
442           	4.851930e-01
443           	2.815727e-01
444           	4.600000e-01
445           	7.984087e-01
446           	1.117441e+00
447           	1.363450e+00
448           	1.503549e+00
449           	1.520345e+00
450           	1.405623e+00
451           	1.160237e+00
452           	8.048211e-01
453           	3.839017e-01
454           	1.308179e-01
455           	5.271835e-01
456           	8.971064e-01
457           	1.175186e+00
458           	1.342416e+00
459           	1.382251e+00
460           	1.285912e+00
461           	1.066239e+00
462           	7.479793e-01
463           	3.657020e-01
464           	7.241056e-02
465           	4.564718e-01
466           	8.245571e-01
467           	1.130482e+00
468           	1.340292e+00
469           	1.435218e+00
470           	1.406640e+00
471           	1.255026e+00
472           	9.976068e-01
473           	6.683211e-01
474           	3.173208e-01
475           	1.611595e-01
476           	4.275744e-01
477           	6.736428e-01
478           	8.291968e-01
479           	8.725721e-01
480           	8.025705e-01
481           	6.374062e-01
482           	4.142993e-01
483           	1.933292e-01
484           	1.885126e-01
485           	3.550611e-01
486           	4.780604e-01
487           	5.191549e-01
488           	4.689166e-01
489           	3.336009e-01
490           	1.321578e-01
491           	1.350697e-01
492           	3.849811e-01
493           	6.241560e-01
494           	8.227646e-01
495           	9.558775e-01
496           	1.007681e+00
497           	9.776546e-01
498           	8.773198e-01
499           	7.166845e-01
500           	5.088246e-01
501           	2.715464e-01
502           	4.160615e-02
503           	2.184176e-01
504           	4.180929e-01
505           	5.635348e-01
506           	6.412697e-01
507           	6.502275e-01
508           	5.990840e-01
509           	4.935535e-01
510           	3.447199e-01
511           	1.743001e-01
512           	1.088686e-01
513           	2.812136e-01
514           	4.670513e-01
515           	6.122638e-01
516           	6.993568e-01
517           	7.297038e-01
518           	7.102919e-01
519           	6.410118e-01
520           	5.310590e-01
521           	3.971499e-01
522           	2.626201e-01
523           	1.507156e-01
524           	7.705232e-02
525           	6.423139e-02
526           	1.197782e-01
527           	2.030564e-01
528           	2.971100e-01
529           	3.948217e-01
530           	4.867740e-01
531           	5.547999e-01
532           	5.855161e-01
533           	5.802446e-01
534           	5.430822e-01
535           	4.768072e-01
536           	3.872578e-01
537           	2.896527e-01
538           	2.304876e-01
539           	2.508205e-01
540           	3.191688e-01
541           	3.919743e-01
542           	4.562645e-01
543           	5.024348e-01
544           	5.165133e-01
545           	4.852472e-01
546           	4.000296e-01
547           	2.618894e-01
548           	9.707695e-02
549           	1.372428e-01
550           	3.184482e-01
551           	4.917334e-01
552           	6.497401e-01
553           	7.736280e-01
554           	8.411317e-01
555           	8.382453e-01
556           	7.626906e-01
557           	6.221506e-01
558           	4.314730e-01
559           	2.182097e-01
560           	8.503490e-02
561           	2.666731e-01
562           	4.920326e-01
563           	7.103693e-01
564           	8.956368e-01
565           	1.026960e+00
566           	1.085689e+00
567           	1.059252e+00
568           	9.512477e-01
569           	7.850024e-01
570           	5.987518e-01
571           	4.261557e-01
572           	2.938142e-01
573           	2.238853e-01
574           	2.176849e-01
575           	2.418547e-01
576           	2.665644e-01
577           	2.763766e-01
578           	2.571780e-01
579           	2.001752e-01
580           	1.045558e-01
581           	3.120517e-02
582           	1.470206e-01
583           	2.604595e-01
584           	3.540496e-01
585           	4.185752e-01
586           	4.513660e-01
587           	4.436485e-01
588           	3.875462e-01
589           	2.842864e-01
590           	1.463933e-01
591           	1.081947e-01
592           	2.780110e-01
593           	4.740362e-01
594           	6.504074e-01
595           	7.824347e-01
596           	8.533684e-01
597           	8.560283e-01
598           	7.920526e-01
599           	6.709317e-01
600           	5.106433e-01
601           	3.607057e-01
602           	3.237172e-01
603           	4.439125e-01
604           	6.019351e-01
605           	7.298718e-01
606           	8.076429e-01
607           	8.279407e-01
608           	7.849660e-01
609           	6.768723e-01
610           	5.081284e-01
611           	2.956366e-01
612           	1.135551e-01
613           	2.937532e-01
614           	5.715253e-01
615           	8.507732e-01
616           	1.111429e+00
617           	1.327442e+00
618           	1.469641e+00
619           	1.520396e+00
620           	1.472698e+00
621           	1.339499e+00
622           	1.142655e+00
623           	8.993864e-01
624           	6.323862e-01
625           	3.704403e-01
626           	2.074665e-01
627           	3.127147e-01
628           	4.951492e-01
629           	6.377661e-01
630           	7.150079e-01
631           	7.161035e-01
632           	6.426257e-01
633           	5.076710e-01
634           	3.460674e-01
635           	2.277758e-01
636           	2.532010e-01
637           	3.691377e-01
638           	4.825227e-01
639           	5.514002e-01
640           	5.609366e-01
641           	5.148352e-01
642           	4.278337e-01
643           	3.260070e-01
644           	2.470618e-01
645           	2.229378e-01
646           	2.280665e-01
647           	2.146266e-01
648           	1.664738e-01
649           	1.008121e-01
650           	1.082991e-01
651           	2.326608e-01
652           	3.984061e-01
653           	5.783058e-01
654           	7.476779e-01
655           	8.763982e-01
656           	9.364710e-01
657           	9.093531e-01
658           	7.926882e-01
659           	6.001715e-01
660           	3.647133e-01
661           	2.038012e-01
662           	3.418559e-01
663           	5.719872e-01
664           	7.892397e-01
665           	9.670247e-01
666           	1.081564e+00
667           	1.117416e+00
668           	1.069117e+00
669           	9.392911e-01
670           	7.336686e-01
671           	4.650110e-01
672           	1.508471e-01
673           	1.817868e-01
674           	4.976488e-01
675           	7.694878e-01
676           	9.763905e-01
677           	1.103872e+00
678           	1.141616e+00
679           	1.080638e+00
680           	9.166654e-01
681           	6.616135e-01
682           	3.483650e-01
683           	1.309812e-01
684           	3.729699e-01
685           	6.376851e-01
686           	8.347205e-01
687           	9.426594e-01
688           	9.497102e-01
689           	8.578679e-01
690           	6.832892e-01
691           	4.493100e-01
692           	2.385489e-01
693           	3.515464e-01
694           	6.387828e-01
695           	8.908291e-01
696           	1.047268e+00
697           	1.089879e+00
698           	1.016033e+00
699           	8.273867e-01
700           	5.452707e-01
701           	2.861014e-01
702           	4.577632e-01
703           	8.392182e-01
704           	1.190398e+00
705           	1.458601e+00
706           	1.625335e+00
707           	1.686964e+00
708           	1.640547e+00
709           	1.482265e+00
710           	1.213292e+00
711           	8.508128e-01
712           	4.266860e-01
713           	5.484895e-02
714           	4.470805e-01
715           	7.974869e-01
716           	1.048456e+00
717           	1.183247e+00
718           	1.198953e+00
719           	1.100101e+00
720           	8.973137e-01
721           	6.142471e-01
722           	3.000293e-01
723           	2.178064e-01
724           	5.169015e-01
725           	8.134903e-01
726           	1.028694e+00
727           	1.133392e+00
728           	1.113687e+00
729           	9.685875e-01
730           	7.117749e-01
731           	3.728716e-01
732           	4.119448e-02
733           	4.359413e-01
734           	8.340660e-01
735           	1.190766e+00
736           	1.482967e+00
737           	1.681350e+00
738           	1.756173e+00
739           	1.688112e+00
740           	1.470271e+00
741           	1.110277e+00
742           	6.397656e-01
743           	1.431337e-01
744           	4.684539e-01
745           	9.620827e-01
746           	1.375346e+00
747           	1.673917e+00
748           	1.837743e+00
749           	1.859699e+00
750           	1.735194e+00
751           	1.474651e+00
752           	1.098522e+00
753           	6.369554e-01
754           	1.452774e-01
755           	4.208401e-01
756           	9.124034e-01
757           	1.329510e+00
758           	1.625231e+00
759           	1.767128e+00
760           	1.747125e+00
761           	1.576527e+00
762           	1.270656e+00
763           	8.517422e-01
764           	3.485753e-01
765           	2.028080e-01
766           	7.422520e-01
767           	1.220932e+00
768           	1.591379e+00
769           	1.816795e+00
770           	1.880269e+00
771           	1.782457e+00
772           	1.534543e+00
773           	1.162066e+00
774           	7.137002e-01
775           	3.131204e-01
776           	4.855844e-01
777           	9.339549e-01
778           	1.343474e+00
779           	1.650859e+00
780           	1.817390e+00
781           	1.825431e+00
782           	1.681821e+00
783           	1.410615e+00
784           	1.055283e+00
785           	7.158147e-01
786           	6.494807e-01
787           	9.537069e-01
788           	1.350878e+00
789           	1.689953e+00
790           	1.909004e+00
791           	1.981740e+00
792           	1.904030e+00
793           	1.688415e+00
794           	1.357467e+00
795           	9.394861e-01
796           	4.811308e-01
797           	2.404018e-01
798           	6.269533e-01
799           	1.058764e+00
800           	1.411594e+00
