# Region type : patch inlet
# Faces       : 7296
# Area        : 1.140000e-04
# Scale factor: 1.000000e+00
# Time        	areaAverage(p)
1             	1.697394e+03
2             	1.443871e+03
3             	8.760574e+02
4             	2.846247e+02
5             	-3.268088e+02
6             	-6.773741e+02
7             	-7.048093e+02
8             	-5.381615e+02
9             	-2.647098e+02
10            	-8.230335e+00
11            	1.801516e+02
12            	2.559802e+02
13            	2.354998e+02
14            	1.567871e+02
15            	5.969246e+01
16            	-2.108625e+01
17            	-6.808131e+01
18            	-7.969436e+01
19            	-6.449074e+01
20            	-3.539798e+01
21            	-4.975036e+00
22            	1.761540e+01
23            	2.846063e+01
24            	2.819126e+01
25            	2.043367e+01
26            	9.753772e+00
27            	8.534110e-02
28            	-6.175121e+00
29            	-8.344936e+00
30            	-7.079723e+00
31            	-3.751321e+00
32            	1.661423e-01
33            	3.519356e+00
34            	5.681506e+00
35            	6.552227e+00
36            	6.410708e+00
37            	5.710507e+00
38            	4.893994e+00
39            	4.269043e+00
40            	3.968512e+00
41            	3.973738e+00
42            	4.173458e+00
43            	4.429621e+00
44            	4.628492e+00
45            	4.710339e+00
46            	4.672574e+00
47            	4.555543e+00
48            	4.420373e+00
49            	4.328073e+00
50            	4.318639e+00
51            	4.402941e+00
52            	4.567057e+00
53            	4.775638e+00
54            	4.983811e+00
55            	5.151254e+00
56            	5.249172e+00
57            	5.265573e+00
58            	5.204546e+00
59            	5.086451e+00
60            	4.939303e+00
61            	4.791367e+00
62            	4.664820e+00
63            	4.571556e+00
64            	4.512734e+00
65            	4.485308e+00
66            	4.486655e+00
67            	4.517895e+00
68            	4.580146e+00
69            	4.672524e+00
70            	4.787720e+00
71            	4.912103e+00
72            	5.026293e+00
73            	5.112383e+00
74            	5.155499e+00
75            	5.147536e+00
76            	5.090779e+00
77            	4.999201e+00
78            	4.891473e+00
79            	4.786152e+00
80            	4.698519e+00
81            	4.638860e+00
82            	4.611900e+00
83            	4.617774e+00
84            	4.652926e+00
85            	4.713597e+00
86            	4.794841e+00
87            	4.888415e+00
88            	4.981694e+00
89            	5.063332e+00
90            	5.123139e+00
91            	5.148718e+00
92            	5.130963e+00
93            	5.069223e+00
94            	4.972132e+00
95            	4.852661e+00
96            	4.726128e+00
97            	4.612289e+00
98            	4.528625e+00
99            	4.491322e+00
100           	4.506529e+00
101           	4.572730e+00
102           	4.681221e+00
103           	4.816879e+00
104           	4.961491e+00
105           	5.095762e+00
106           	5.201606e+00
107           	5.266421e+00
108           	5.285266e+00
109           	5.261379e+00
110           	5.205465e+00
111           	5.126489e+00
112           	5.034675e+00
113           	4.935951e+00
114           	4.841160e+00
115           	4.763842e+00
116           	4.720307e+00
117           	4.721831e+00
118           	4.773051e+00
119           	4.867067e+00
120           	4.990035e+00
121           	5.125139e+00
122           	5.250308e+00
123           	5.346980e+00
124           	5.408878e+00
125           	5.443361e+00
126           	5.462244e+00
127           	5.476574e+00
128           	5.494290e+00
129           	5.513105e+00
130           	5.524007e+00
131           	5.514161e+00
132           	5.477130e+00
133           	5.419818e+00
134           	5.360449e+00
135           	5.319665e+00
136           	5.308296e+00
137           	5.327837e+00
138           	5.372005e+00
139           	5.428077e+00
140           	5.485493e+00
141           	5.542089e+00
142           	5.602312e+00
143           	5.672519e+00
144           	5.754933e+00
145           	5.848653e+00
146           	5.940441e+00
147           	6.012149e+00
148           	6.047330e+00
149           	6.040799e+00
150           	5.993452e+00
151           	5.916259e+00
152           	5.828000e+00
153           	5.745915e+00
154           	5.681054e+00
155           	5.640498e+00
156           	5.625865e+00
157           	5.637180e+00
158           	5.669533e+00
159           	5.720417e+00
160           	5.789132e+00
161           	5.876919e+00
162           	5.980627e+00
163           	6.093009e+00
164           	6.200639e+00
165           	6.287525e+00
166           	6.338651e+00
167           	6.346125e+00
168           	6.308246e+00
169           	6.232220e+00
170           	6.134940e+00
171           	6.036869e+00
172           	5.957528e+00
173           	5.908043e+00
174           	5.886758e+00
175           	5.884952e+00
176           	5.896755e+00
177           	5.920658e+00
178           	5.959038e+00
179           	6.013773e+00
180           	6.082764e+00
181           	6.161405e+00
182           	6.243419e+00
183           	6.313455e+00
184           	6.355742e+00
185           	6.355752e+00
186           	6.308778e+00
187           	6.223805e+00
188           	6.120248e+00
189           	6.022809e+00
190           	5.954254e+00
191           	5.927556e+00
192           	5.940274e+00
193           	5.981909e+00
194           	6.037522e+00
195           	6.097305e+00
196           	6.156571e+00
197           	6.211866e+00
198           	6.260931e+00
199           	6.299297e+00
200           	6.321735e+00
201           	6.325487e+00
202           	6.305261e+00
203           	6.259947e+00
204           	6.192153e+00
205           	6.110665e+00
206           	6.028473e+00
207           	5.963658e+00
208           	5.924771e+00
209           	5.912377e+00
210           	5.924755e+00
211           	5.956370e+00
212           	5.998250e+00
213           	6.040989e+00
214           	6.081089e+00
215           	6.120138e+00
216           	6.159365e+00
217           	6.198540e+00
218           	6.229924e+00
219           	6.243975e+00
220           	6.233071e+00
221           	6.197115e+00
222           	6.142523e+00
223           	6.080615e+00
224           	6.025577e+00
225           	5.986183e+00
226           	5.967123e+00
227           	5.966386e+00
228           	5.979457e+00
229           	5.998145e+00
230           	6.015883e+00
231           	6.033006e+00
232           	6.053281e+00
233           	6.083073e+00
234           	6.123026e+00
235           	6.169276e+00
236           	6.211709e+00
237           	6.240096e+00
238           	6.250243e+00
239           	6.240760e+00
240           	6.218070e+00
241           	6.189484e+00
242           	6.159071e+00
243           	6.128212e+00
244           	6.093625e+00
245           	6.052544e+00
246           	6.005742e+00
247           	5.958945e+00
248           	5.921845e+00
249           	5.904722e+00
250           	5.916723e+00
251           	5.961849e+00
252           	6.035899e+00
253           	6.126516e+00
254           	6.218039e+00
255           	6.297940e+00
256           	6.355695e+00
257           	6.384922e+00
258           	6.384104e+00
259           	6.360410e+00
260           	6.320195e+00
261           	6.270396e+00
262           	6.211548e+00
263           	6.143319e+00
264           	6.070197e+00
265           	5.999443e+00
266           	5.943359e+00
267           	5.913896e+00
268           	5.921832e+00
269           	5.967017e+00
270           	6.039681e+00
271           	6.122467e+00
272           	6.205695e+00
273           	6.278098e+00
274           	6.332490e+00
275           	6.369120e+00
276           	6.389303e+00
277           	6.394411e+00
278           	6.387989e+00
279           	6.374675e+00
280           	6.357087e+00
281           	6.338688e+00
282           	6.322196e+00
283           	6.304030e+00
284           	6.279009e+00
285           	6.245935e+00
286           	6.206023e+00
287           	6.167820e+00
288           	6.138843e+00
289           	6.126419e+00
290           	6.134452e+00
291           	6.164349e+00
292           	6.212842e+00
293           	6.272975e+00
294           	6.336545e+00
295           	6.399537e+00
296           	6.455368e+00
297           	6.502225e+00
298           	6.542336e+00
299           	6.572637e+00
300           	6.590413e+00
301           	6.591002e+00
302           	6.570894e+00
303           	6.528456e+00
304           	6.466832e+00
305           	6.394170e+00
306           	6.320542e+00
307           	6.255244e+00
308           	6.207246e+00
309           	6.182293e+00
310           	6.180189e+00
311           	6.196462e+00
312           	6.223042e+00
313           	6.255656e+00
314           	6.296686e+00
315           	6.352230e+00
316           	6.423170e+00
317           	6.505584e+00
318           	6.589301e+00
319           	6.658222e+00
320           	6.696270e+00
321           	6.694351e+00
322           	6.654072e+00
323           	6.581853e+00
324           	6.491657e+00
325           	6.395988e+00
326           	6.302051e+00
327           	6.218006e+00
328           	6.147129e+00
329           	6.091915e+00
330           	6.055217e+00
331           	6.040658e+00
332           	6.054394e+00
333           	6.103436e+00
334           	6.186164e+00
335           	6.293894e+00
336           	6.413341e+00
337           	6.529221e+00
338           	6.626410e+00
339           	6.690907e+00
340           	6.716387e+00
341           	6.706746e+00
342           	6.672244e+00
343           	6.619402e+00
344           	6.556168e+00
345           	6.487135e+00
346           	6.411945e+00
347           	6.330511e+00
348           	6.243209e+00
349           	6.159965e+00
350           	6.097680e+00
351           	6.070585e+00
352           	6.080942e+00
353           	6.124826e+00
354           	6.197288e+00
355           	6.293057e+00
356           	6.399287e+00
357           	6.500869e+00
358           	6.587597e+00
359           	6.653225e+00
360           	6.698075e+00
361           	6.724772e+00
362           	6.731052e+00
363           	6.714870e+00
364           	6.674417e+00
365           	6.609799e+00
366           	6.527023e+00
367           	6.434901e+00
368           	6.345974e+00
369           	6.272301e+00
370           	6.220130e+00
371           	6.191515e+00
372           	6.184380e+00
373           	6.198396e+00
374           	6.233269e+00
375           	6.286298e+00
376           	6.352323e+00
377           	6.429309e+00
378           	6.512985e+00
379           	6.594063e+00
380           	6.663343e+00
381           	6.714901e+00
382           	6.742455e+00
383           	6.739202e+00
384           	6.704656e+00
385           	6.642875e+00
386           	6.561597e+00
387           	6.468518e+00
388           	6.376549e+00
389           	6.293681e+00
390           	6.225920e+00
391           	6.176657e+00
392           	6.150794e+00
393           	6.152022e+00
394           	6.182195e+00
395           	6.240616e+00
396           	6.321120e+00
397           	6.413668e+00
398           	6.506544e+00
399           	6.589307e+00
400           	6.648138e+00
401           	6.672996e+00
402           	6.663785e+00
403           	6.629593e+00
404           	6.581623e+00
405           	6.529275e+00
406           	6.478669e+00
407           	6.432902e+00
408           	6.390536e+00
409           	6.353529e+00
410           	6.325579e+00
411           	6.314269e+00
412           	6.322870e+00
413           	6.349474e+00
414           	6.390092e+00
415           	6.439461e+00
416           	6.491753e+00
417           	6.539585e+00
418           	6.574477e+00
419           	6.589118e+00
420           	6.583082e+00
421           	6.562430e+00
422           	6.535387e+00
423           	6.509418e+00
424           	6.488243e+00
425           	6.470428e+00
426           	6.453390e+00
427           	6.435298e+00
428           	6.416493e+00
429           	6.402989e+00
430           	6.399097e+00
431           	6.405581e+00
432           	6.421251e+00
433           	6.443614e+00
434           	6.470913e+00
435           	6.502125e+00
436           	6.533410e+00
437           	6.557878e+00
438           	6.569539e+00
439           	6.567426e+00
440           	6.556419e+00
441           	6.542108e+00
442           	6.531770e+00
443           	6.526703e+00
444           	6.527347e+00
445           	6.529477e+00
446           	6.529944e+00
447           	6.529587e+00
448           	6.528029e+00
449           	6.526988e+00
450           	6.530332e+00
451           	6.539246e+00
452           	6.552077e+00
453           	6.565687e+00
454           	6.577688e+00
455           	6.586565e+00
456           	6.590129e+00
457           	6.586806e+00
458           	6.576832e+00
459           	6.562085e+00
460           	6.549388e+00
461           	6.543828e+00
462           	6.545050e+00
463           	6.553335e+00
464           	6.568209e+00
465           	6.586459e+00
466           	6.602431e+00
467           	6.617092e+00
468           	6.626908e+00
469           	6.634079e+00
470           	6.642533e+00
471           	6.657418e+00
472           	6.680212e+00
473           	6.708078e+00
474           	6.736496e+00
475           	6.759631e+00
476           	6.769528e+00
477           	6.762561e+00
478           	6.742857e+00
479           	6.717714e+00
480           	6.696714e+00
481           	6.686875e+00
482           	6.689595e+00
483           	6.701016e+00
484           	6.715255e+00
485           	6.723778e+00
486           	6.722239e+00
487           	6.711838e+00
488           	6.697046e+00
489           	6.685607e+00
490           	6.682727e+00
491           	6.689582e+00
492           	6.701510e+00
493           	6.714746e+00
494           	6.723597e+00
495           	6.725861e+00
496           	6.720728e+00
497           	6.711894e+00
498           	6.705164e+00
499           	6.700875e+00
500           	6.695679e+00
501           	6.684531e+00
502           	6.664731e+00
503           	6.639340e+00
504           	6.616595e+00
505           	6.604767e+00
506           	6.608120e+00
507           	6.625244e+00
508           	6.648066e+00
509           	6.670786e+00
510           	6.687875e+00
511           	6.700477e+00
512           	6.711351e+00
513           	6.721145e+00
514           	6.728179e+00
515           	6.731554e+00
516           	6.734706e+00
517           	6.739302e+00
518           	6.737618e+00
519           	6.723471e+00
520           	6.695810e+00
521           	6.657927e+00
522           	6.618681e+00
523           	6.589096e+00
524           	6.577227e+00
525           	6.583193e+00
526           	6.599978e+00
527           	6.618238e+00
528           	6.627575e+00
529           	6.629774e+00
530           	6.633366e+00
531           	6.643716e+00
532           	6.668852e+00
533           	6.709045e+00
534           	6.755356e+00
535           	6.791837e+00
536           	6.808399e+00
537           	6.800376e+00
538           	6.770311e+00
539           	6.728783e+00
540           	6.691037e+00
541           	6.666716e+00
542           	6.661438e+00
543           	6.673604e+00
544           	6.696211e+00
545           	6.716454e+00
546           	6.722900e+00
547           	6.714049e+00
548           	6.694735e+00
549           	6.678608e+00
550           	6.678254e+00
551           	6.694711e+00
552           	6.725081e+00
553           	6.763263e+00
554           	6.796283e+00
555           	6.814614e+00
556           	6.811177e+00
557           	6.790487e+00
558           	6.762563e+00
559           	6.740074e+00
560           	6.733098e+00
561           	6.739860e+00
562           	6.754035e+00
563           	6.768899e+00
564           	6.775026e+00
565           	6.770738e+00
566           	6.761508e+00
567           	6.754453e+00
568           	6.754907e+00
569           	6.767428e+00
570           	6.796136e+00
571           	6.835569e+00
572           	6.873942e+00
573           	6.898030e+00
574           	6.895786e+00
575           	6.867082e+00
576           	6.821966e+00
577           	6.778003e+00
578           	6.748998e+00
579           	6.740834e+00
580           	6.753236e+00
581           	6.776740e+00
582           	6.801886e+00
583           	6.821315e+00
584           	6.830309e+00
585           	6.826600e+00
586           	6.820524e+00
587           	6.820582e+00
588           	6.829371e+00
589           	6.842134e+00
590           	6.856661e+00
591           	6.871663e+00
592           	6.884645e+00
593           	6.893884e+00
594           	6.901201e+00
595           	6.907223e+00
596           	6.911759e+00
597           	6.911193e+00
598           	6.903560e+00
599           	6.889602e+00
600           	6.872991e+00
601           	6.859551e+00
602           	6.851813e+00
603           	6.849755e+00
604           	6.855107e+00
605           	6.865723e+00
606           	6.876934e+00
607           	6.882124e+00
608           	6.879088e+00
609           	6.872309e+00
610           	6.867325e+00
611           	6.874841e+00
612           	6.895321e+00
613           	6.920889e+00
614           	6.943964e+00
615           	6.956795e+00
616           	6.953854e+00
617           	6.932283e+00
618           	6.895713e+00
619           	6.853554e+00
620           	6.817292e+00
621           	6.798567e+00
622           	6.798841e+00
623           	6.815229e+00
624           	6.836696e+00
625           	6.848812e+00
626           	6.843534e+00
627           	6.820315e+00
628           	6.787753e+00
629           	6.757732e+00
630           	6.743292e+00
631           	6.751098e+00
632           	6.778296e+00
633           	6.820535e+00
634           	6.871979e+00
635           	6.917521e+00
636           	6.947384e+00
637           	6.957414e+00
638           	6.953121e+00
639           	6.943629e+00
640           	6.933879e+00
641           	6.926933e+00
642           	6.919931e+00
643           	6.910114e+00
644           	6.898751e+00
645           	6.885946e+00
646           	6.877072e+00
647           	6.878959e+00
648           	6.889813e+00
649           	6.905763e+00
650           	6.921117e+00
651           	6.930279e+00
652           	6.929449e+00
653           	6.918204e+00
654           	6.901019e+00
655           	6.879379e+00
656           	6.857169e+00
657           	6.839983e+00
658           	6.829542e+00
659           	6.822232e+00
660           	6.816044e+00
661           	6.812128e+00
662           	6.812880e+00
663           	6.820308e+00
664           	6.836465e+00
665           	6.861067e+00
666           	6.887217e+00
667           	6.906607e+00
668           	6.911769e+00
669           	6.903375e+00
670           	6.885813e+00
671           	6.857921e+00
672           	6.827358e+00
673           	6.800330e+00
674           	6.778302e+00
675           	6.765632e+00
676           	6.765563e+00
677           	6.779981e+00
678           	6.808800e+00
679           	6.848647e+00
680           	6.891837e+00
681           	6.935273e+00
682           	6.971227e+00
683           	6.995501e+00
684           	7.007707e+00
685           	7.011458e+00
686           	7.006710e+00
687           	6.993606e+00
688           	6.975046e+00
689           	6.949221e+00
690           	6.915122e+00
691           	6.878337e+00
692           	6.846456e+00
693           	6.825015e+00
694           	6.820594e+00
695           	6.833507e+00
696           	6.858328e+00
697           	6.887088e+00
698           	6.910768e+00
699           	6.924708e+00
700           	6.928824e+00
701           	6.927316e+00
702           	6.922822e+00
703           	6.920563e+00
704           	6.923090e+00
705           	6.932821e+00
706           	6.945539e+00
707           	6.953208e+00
708           	6.951049e+00
709           	6.942527e+00
710           	6.934641e+00
711           	6.930018e+00
712           	6.928609e+00
713           	6.928997e+00
714           	6.930303e+00
715           	6.929054e+00
716           	6.921458e+00
717           	6.903671e+00
718           	6.880365e+00
719           	6.860823e+00
720           	6.854487e+00
721           	6.867388e+00
722           	6.899864e+00
723           	6.945219e+00
724           	6.992482e+00
725           	7.032888e+00
726           	7.062990e+00
727           	7.081489e+00
728           	7.092872e+00
729           	7.099754e+00
730           	7.100231e+00
731           	7.095161e+00
732           	7.084492e+00
733           	7.064617e+00
734           	7.031428e+00
735           	6.989793e+00
736           	6.948172e+00
737           	6.916200e+00
738           	6.903158e+00
739           	6.912777e+00
740           	6.946487e+00
741           	7.000640e+00
742           	7.062508e+00
743           	7.116079e+00
744           	7.152178e+00
745           	7.171299e+00
746           	7.177845e+00
747           	7.177508e+00
748           	7.175679e+00
749           	7.175457e+00
750           	7.176039e+00
751           	7.169091e+00
752           	7.148867e+00
753           	7.113668e+00
754           	7.067618e+00
755           	7.019589e+00
756           	6.979225e+00
757           	6.955154e+00
758           	6.952136e+00
759           	6.974109e+00
760           	7.012701e+00
761           	7.054999e+00
762           	7.088102e+00
763           	7.105080e+00
764           	7.108714e+00
765           	7.102804e+00
766           	7.094326e+00
767           	7.085761e+00
768           	7.078166e+00
769           	7.069229e+00
770           	7.055089e+00
771           	7.033651e+00
772           	7.005511e+00
773           	6.979601e+00
774           	6.960907e+00
775           	6.953622e+00
776           	6.960431e+00
777           	6.984568e+00
778           	7.024420e+00
779           	7.073160e+00
780           	7.122584e+00
781           	7.159613e+00
782           	7.177035e+00
783           	7.174628e+00
784           	7.157457e+00
785           	7.129472e+00
786           	7.096611e+00
787           	7.063056e+00
788           	7.033263e+00
789           	7.007532e+00
790           	6.983828e+00
791           	6.959375e+00
792           	6.937259e+00
793           	6.919876e+00
794           	6.912113e+00
795           	6.920851e+00
796           	6.950959e+00
797           	6.997785e+00
798           	7.052840e+00
799           	7.108335e+00
800           	7.155925e+00
