# Region      : all region0
# Cells       : 4663816
# Volume      : 9.809995e-06
# Time        	volAverage(k)
800           	1.388663e-03
