# Region      : cellZone box
# Cells       : 2720208
# Volume      : 5.251462e-06
# Time        	volAverage(vorticity)
1             	3.452023e-05
2             	4.258105e-05
3             	4.766863e-05
4             	4.053388e-04
5             	1.836913e-03
6             	7.724797e-03
7             	1.130382e-02
8             	8.962434e-03
9             	1.533785e-03
10            	1.786139e-02
11            	2.409653e-02
12            	2.223724e-02
13            	1.190260e-02
14            	4.338021e-03
15            	1.312698e-02
16            	1.336144e-02
17            	9.036436e-03
18            	9.735321e-03
19            	1.660089e-02
20            	2.269217e-02
21            	2.732456e-02
22            	3.153899e-02
23            	3.624934e-02
24            	4.144348e-02
25            	4.646803e-02
26            	5.073034e-02
27            	5.315837e-02
28            	5.037738e-02
29            	4.619791e-02
30            	4.273314e-02
31            	4.148210e-02
32            	4.286862e-02
33            	4.622514e-02
34            	5.090398e-02
35            	5.694485e-02
36            	6.324750e-02
37            	6.821773e-02
38            	7.071234e-02
39            	7.013686e-02
40            	6.609599e-02
41            	5.944617e-02
42            	5.071594e-02
43            	4.132218e-02
44            	3.169358e-02
45            	2.485096e-02
46            	2.117900e-02
47            	2.194106e-02
48            	2.588171e-02
49            	3.296934e-02
50            	4.364848e-02
51            	5.481905e-02
52            	6.473448e-02
53            	7.166213e-02
54            	7.692794e-02
55            	8.201006e-02
56            	8.601215e-02
57            	9.072030e-02
58            	9.820081e-02
59            	1.077448e-01
60            	1.175523e-01
61            	1.260101e-01
62            	1.331664e-01
63            	1.408070e-01
64            	1.507854e-01
65            	1.638215e-01
66            	1.763670e-01
67            	1.858404e-01
68            	1.927027e-01
69            	1.969210e-01
70            	1.971916e-01
71            	1.943954e-01
72            	1.907208e-01
73            	1.856223e-01
74            	1.748817e-01
75            	1.561123e-01
76            	1.306584e-01
77            	1.042787e-01
78            	8.088267e-02
79            	6.371334e-02
80            	5.380274e-02
81            	4.898215e-02
82            	4.819087e-02
83            	5.262282e-02
84            	6.204398e-02
85            	7.558303e-02
86            	9.199365e-02
87            	1.052234e-01
88            	1.071473e-01
89            	9.626038e-02
90            	7.701002e-02
91            	5.394759e-02
92            	2.998938e-02
93            	6.498320e-03
94            	1.550238e-02
95            	3.586253e-02
96            	5.449688e-02
97            	6.943069e-02
98            	8.177107e-02
99            	8.883879e-02
100           	9.045865e-02
101           	8.703825e-02
102           	8.071940e-02
103           	7.267499e-02
104           	6.450460e-02
105           	5.736197e-02
106           	5.195745e-02
107           	4.794724e-02
108           	4.456486e-02
109           	4.116779e-02
110           	3.642950e-02
111           	3.334220e-02
112           	2.853264e-02
113           	2.232514e-02
114           	2.227686e-02
115           	3.048946e-02
116           	3.774549e-02
117           	3.933341e-02
118           	3.313210e-02
119           	1.929944e-02
120           	7.290529e-03
121           	2.810576e-02
122           	5.342891e-02
123           	7.635973e-02
124           	9.466345e-02
125           	1.050382e-01
126           	1.068933e-01
127           	1.049060e-01
128           	1.047067e-01
129           	1.092459e-01
130           	1.205904e-01
131           	1.380001e-01
132           	1.545422e-01
133           	1.652342e-01
134           	1.676959e-01
135           	1.629439e-01
136           	1.514194e-01
137           	1.332087e-01
138           	1.082863e-01
139           	7.833844e-02
140           	4.557598e-02
141           	2.076727e-02
142           	3.234157e-02
143           	5.822136e-02
144           	8.634195e-02
145           	1.145068e-01
146           	1.392029e-01
147           	1.584844e-01
148           	1.713513e-01
149           	1.756529e-01
150           	1.651020e-01
151           	1.364951e-01
152           	9.195893e-02
153           	4.043152e-02
154           	3.442421e-02
155           	8.577441e-02
156           	1.359876e-01
157           	1.783237e-01
158           	2.107849e-01
159           	2.332666e-01
160           	2.456083e-01
161           	2.460331e-01
162           	2.342170e-01
163           	2.144484e-01
164           	1.912805e-01
165           	1.676564e-01
166           	1.498336e-01
167           	1.489893e-01
168           	1.701750e-01
169           	2.003064e-01
170           	2.251010e-01
171           	2.396603e-01
172           	2.478873e-01
173           	2.503951e-01
174           	2.461680e-01
175           	2.321919e-01
176           	2.082450e-01
177           	1.776872e-01
178           	1.414294e-01
179           	1.024710e-01
180           	7.139671e-02
181           	6.312372e-02
182           	7.625791e-02
183           	9.402962e-02
184           	1.036741e-01
185           	1.077065e-01
186           	1.113548e-01
187           	1.139806e-01
188           	1.142706e-01
189           	1.128300e-01
190           	1.077145e-01
191           	1.053729e-01
192           	1.015981e-01
193           	9.165328e-02
194           	8.442951e-02
195           	8.478461e-02
196           	9.301478e-02
197           	1.141996e-01
198           	1.498356e-01
199           	1.901329e-01
200           	2.218737e-01
201           	2.400730e-01
202           	2.522480e-01
203           	2.596935e-01
204           	2.715258e-01
205           	2.935308e-01
206           	3.168465e-01
207           	3.310197e-01
208           	3.264437e-01
209           	3.017916e-01
210           	2.555557e-01
211           	1.867412e-01
212           	1.078391e-01
213           	6.007360e-02
214           	8.552599e-02
215           	1.515956e-01
216           	2.150233e-01
217           	2.581309e-01
218           	2.785971e-01
219           	2.724828e-01
220           	2.530195e-01
221           	2.344097e-01
222           	2.134410e-01
223           	1.784058e-01
224           	1.379436e-01
225           	1.111420e-01
226           	1.231980e-01
227           	1.499015e-01
228           	1.570526e-01
229           	1.578415e-01
230           	1.722991e-01
231           	1.951758e-01
232           	2.202116e-01
233           	2.374497e-01
234           	2.397778e-01
235           	2.357590e-01
236           	2.251940e-01
237           	2.005200e-01
238           	1.562144e-01
239           	1.307516e-01
240           	2.071023e-01
241           	3.286003e-01
242           	4.236758e-01
243           	4.655499e-01
244           	4.625448e-01
245           	4.241893e-01
246           	3.644913e-01
247           	2.836656e-01
248           	1.796382e-01
249           	8.910798e-02
250           	1.793295e-01
251           	3.446317e-01
252           	5.031363e-01
253           	6.341652e-01
254           	7.255313e-01
255           	7.678655e-01
256           	7.559746e-01
257           	6.943792e-01
258           	5.926782e-01
259           	4.493587e-01
260           	2.768472e-01
261           	1.966765e-01
262           	3.660772e-01
263           	5.809097e-01
264           	7.468190e-01
265           	8.306975e-01
266           	8.372391e-01
267           	7.953765e-01
268           	7.140788e-01
269           	5.892004e-01
270           	4.329346e-01
271           	3.585064e-01
272           	4.976398e-01
273           	7.371766e-01
274           	9.641479e-01
275           	1.140394e+00
276           	1.260634e+00
277           	1.333270e+00
278           	1.362379e+00
279           	1.340420e+00
280           	1.252594e+00
281           	1.097280e+00
282           	8.920130e-01
283           	6.764073e-01
284           	5.032840e-01
285           	4.534226e-01
286           	5.615308e-01
287           	7.225615e-01
288           	8.516488e-01
289           	9.192910e-01
290           	9.425538e-01
291           	9.435979e-01
292           	9.416520e-01
293           	9.384055e-01
294           	9.090562e-01
295           	8.144462e-01
296           	6.534892e-01
297           	4.785396e-01
298           	4.246339e-01
299           	5.597329e-01
300           	7.643388e-01
301           	9.614509e-01
302           	1.144785e+00
303           	1.321662e+00
304           	1.468344e+00
305           	1.552102e+00
306           	1.576491e+00
307           	1.543233e+00
308           	1.426738e+00
309           	1.212561e+00
310           	9.149529e-01
311           	5.904794e-01
312           	4.516323e-01
313           	7.083656e-01
314           	1.079993e+00
315           	1.412866e+00
316           	1.672270e+00
317           	1.859401e+00
318           	1.975661e+00
319           	1.997282e+00
320           	1.926670e+00
321           	1.798962e+00
322           	1.647535e+00
323           	1.451788e+00
324           	1.204393e+00
325           	8.867314e-01
326           	5.114946e-01
327           	2.751201e-01
328           	6.133952e-01
329           	1.072828e+00
330           	1.514553e+00
331           	1.897441e+00
332           	2.184646e+00
333           	2.356111e+00
334           	2.411665e+00
335           	2.343586e+00
336           	2.157383e+00
337           	1.864282e+00
338           	1.483999e+00
339           	1.054049e+00
340           	5.854239e-01
341           	1.016306e-01
342           	4.849694e-01
343           	1.002611e+00
344           	1.454550e+00
345           	1.799881e+00
346           	2.006084e+00
347           	2.084400e+00
348           	2.080219e+00
349           	2.002865e+00
350           	1.834955e+00
351           	1.582440e+00
352           	1.287209e+00
353           	9.765946e-01
354           	6.846904e-01
355           	4.602189e-01
356           	4.252020e-01
357           	6.468796e-01
358           	9.414572e-01
359           	1.232068e+00
360           	1.495594e+00
361           	1.718204e+00
362           	1.883711e+00
363           	1.976675e+00
364           	1.982179e+00
365           	1.888495e+00
366           	1.694765e+00
367           	1.426931e+00
368           	1.115739e+00
369           	7.873736e-01
370           	4.773664e-01
371           	3.421973e-01
372           	5.348014e-01
373           	8.155768e-01
374           	1.071478e+00
375           	1.298484e+00
376           	1.470494e+00
377           	1.571829e+00
378           	1.607868e+00
379           	1.583246e+00
380           	1.490965e+00
381           	1.309406e+00
382           	1.052592e+00
383           	7.605311e-01
384           	4.996595e-01
385           	4.291091e-01
386           	5.898122e-01
387           	8.121442e-01
388           	1.034866e+00
389           	1.241466e+00
390           	1.402863e+00
391           	1.520879e+00
392           	1.605062e+00
393           	1.653333e+00
394           	1.663872e+00
395           	1.629267e+00
396           	1.557598e+00
397           	1.416345e+00
398           	1.175821e+00
399           	8.360251e-01
400           	4.621726e-01
401           	4.240914e-01
402           	8.171443e-01
403           	1.270554e+00
404           	1.691843e+00
405           	2.051421e+00
406           	2.330280e+00
407           	2.509822e+00
408           	2.559057e+00
409           	2.465394e+00
410           	2.240522e+00
411           	1.896617e+00
412           	1.472802e+00
413           	1.027444e+00
414           	5.721368e-01
415           	2.333154e-01
416           	4.698281e-01
417           	8.674497e-01
418           	1.216124e+00
419           	1.501095e+00
420           	1.731721e+00
421           	1.913215e+00
422           	2.041536e+00
423           	2.094708e+00
424           	2.033363e+00
425           	1.823597e+00
426           	1.465825e+00
427           	9.948081e-01
428           	4.930487e-01
429           	3.837858e-01
430           	7.959491e-01
431           	1.183734e+00
432           	1.488212e+00
433           	1.711344e+00
434           	1.864715e+00
435           	1.939153e+00
436           	1.919598e+00
437           	1.813965e+00
438           	1.628302e+00
439           	1.352795e+00
440           	9.954079e-01
441           	5.802659e-01
442           	2.106419e-01
443           	4.074945e-01
444           	7.650136e-01
445           	1.020776e+00
446           	1.163704e+00
447           	1.219773e+00
448           	1.233475e+00
449           	1.237191e+00
450           	1.233759e+00
451           	1.196763e+00
452           	1.106842e+00
453           	9.575531e-01
454           	7.688482e-01
455           	5.884701e-01
456           	4.497760e-01
457           	3.591682e-01
458           	3.013646e-01
459           	2.801509e-01
460           	3.111721e-01
461           	3.927545e-01
462           	5.040899e-01
463           	6.267943e-01
464           	7.437048e-01
465           	8.069862e-01
466           	7.903980e-01
467           	6.897203e-01
468           	5.456181e-01
469           	4.151362e-01
470           	3.188480e-01
471           	2.476075e-01
472           	2.021199e-01
473           	2.068307e-01
474           	2.734143e-01
475           	3.763940e-01
476           	5.021565e-01
477           	6.574262e-01
478           	8.494654e-01
479           	1.047128e+00
480           	1.201052e+00
481           	1.284196e+00
482           	1.281257e+00
483           	1.191337e+00
484           	1.024608e+00
485           	7.973477e-01
486           	5.587939e-01
487           	3.647288e-01
488           	2.977612e-01
489           	3.657400e-01
490           	4.624863e-01
491           	5.353462e-01
492           	5.717592e-01
493           	5.799821e-01
494           	5.714630e-01
495           	5.515722e-01
496           	4.994312e-01
497           	4.006213e-01
498           	2.852209e-01
499           	2.625694e-01
500           	3.976889e-01
501           	5.756645e-01
502           	7.383940e-01
503           	8.691518e-01
504           	9.685418e-01
505           	1.052373e+00
506           	1.125096e+00
507           	1.202148e+00
508           	1.275613e+00
509           	1.311928e+00
510           	1.284658e+00
511           	1.160207e+00
512           	9.463723e-01
513           	6.548005e-01
514           	3.234744e-01
515           	2.017902e-02
516           	2.865626e-01
517           	5.343696e-01
518           	7.267227e-01
519           	8.713024e-01
520           	9.871538e-01
521           	1.078262e+00
522           	1.126145e+00
523           	1.084252e+00
524           	9.498994e-01
525           	7.519609e-01
526           	5.383029e-01
527           	3.249830e-01
528           	9.125875e-02
529           	2.653106e-01
530           	5.661413e-01
531           	8.245743e-01
532           	1.027638e+00
533           	1.204884e+00
534           	1.367615e+00
535           	1.502343e+00
536           	1.572941e+00
537           	1.561172e+00
538           	1.467525e+00
539           	1.300633e+00
540           	1.067725e+00
541           	7.912208e-01
542           	5.030403e-01
543           	2.682149e-01
544           	2.653369e-01
545           	4.583495e-01
546           	6.851960e-01
547           	8.849980e-01
548           	1.028713e+00
549           	1.124805e+00
550           	1.189938e+00
551           	1.226446e+00
552           	1.202265e+00
553           	1.122063e+00
554           	1.023720e+00
555           	9.470762e-01
556           	9.424210e-01
557           	1.019692e+00
558           	1.140078e+00
559           	1.261954e+00
560           	1.358464e+00
561           	1.430414e+00
562           	1.503402e+00
563           	1.570608e+00
564           	1.586606e+00
565           	1.503775e+00
566           	1.286867e+00
567           	9.214535e-01
568           	4.794039e-01
569           	3.645764e-01
570           	7.689897e-01
571           	1.167053e+00
572           	1.470372e+00
573           	1.669149e+00
574           	1.803254e+00
575           	1.877894e+00
576           	1.897958e+00
577           	1.855778e+00
578           	1.716687e+00
579           	1.449523e+00
580           	1.059249e+00
581           	5.870696e-01
582           	1.583969e-01
583           	4.632541e-01
584           	8.968902e-01
585           	1.305144e+00
586           	1.683842e+00
587           	2.011128e+00
588           	2.241233e+00
589           	2.348014e+00
590           	2.334927e+00
591           	2.212297e+00
592           	1.986718e+00
593           	1.650265e+00
594           	1.213207e+00
595           	7.092846e-01
596           	4.071683e-01
597           	7.844116e-01
598           	1.325858e+00
599           	1.807390e+00
600           	2.189753e+00
601           	2.450594e+00
602           	2.578640e+00
603           	2.584783e+00
604           	2.460404e+00
605           	2.204695e+00
606           	1.803372e+00
607           	1.269010e+00
608           	6.708483e-01
609           	4.240647e-01
610           	1.006670e+00
611           	1.686496e+00
612           	2.295960e+00
613           	2.774824e+00
614           	3.057396e+00
615           	3.150073e+00
616           	3.053651e+00
617           	2.774872e+00
618           	2.306015e+00
619           	1.644026e+00
620           	8.265860e-01
621           	1.965304e-01
622           	1.054875e+00
623           	1.872949e+00
624           	2.560637e+00
625           	3.094092e+00
626           	3.456634e+00
627           	3.648167e+00
628           	3.641407e+00
629           	3.431794e+00
630           	3.012340e+00
631           	2.388333e+00
632           	1.595014e+00
633           	7.113579e-01
634           	3.817659e-01
635           	1.207791e+00
636           	2.001284e+00
637           	2.647031e+00
638           	3.090307e+00
639           	3.314130e+00
640           	3.345604e+00
641           	3.237010e+00
642           	3.003309e+00
643           	2.650440e+00
644           	2.157505e+00
645           	1.507537e+00
646           	7.157645e-01
647           	1.885607e-01
648           	1.090161e+00
649           	1.957437e+00
650           	2.727122e+00
651           	3.341149e+00
652           	3.756214e+00
653           	3.926490e+00
654           	3.860312e+00
655           	3.577514e+00
656           	3.078635e+00
657           	2.373220e+00
658           	1.530183e+00
659           	6.494509e-01
660           	5.361628e-01
661           	1.395188e+00
662           	2.207922e+00
663           	2.861795e+00
664           	3.315236e+00
665           	3.540460e+00
666           	3.568950e+00
667           	3.396238e+00
668           	3.034018e+00
669           	2.510705e+00
670           	1.857494e+00
671           	1.098304e+00
672           	2.416809e-01
673           	6.902519e-01
674           	1.622588e+00
675           	2.491640e+00
676           	3.226387e+00
677           	3.787462e+00
678           	4.133215e+00
679           	4.227944e+00
680           	4.069489e+00
681           	3.686702e+00
682           	3.087929e+00
683           	2.294002e+00
684           	1.354397e+00
685           	3.935085e-01
686           	8.187282e-01
687           	1.777580e+00
688           	2.600636e+00
689           	3.227160e+00
690           	3.623830e+00
691           	3.797348e+00
692           	3.748211e+00
693           	3.499443e+00
694           	3.072335e+00
695           	2.494818e+00
696           	1.815015e+00
697           	1.112456e+00
698           	6.109536e-01
699           	8.935065e-01
700           	1.560398e+00
701           	2.244634e+00
702           	2.824261e+00
703           	3.239970e+00
704           	3.442387e+00
705           	3.429131e+00
706           	3.206010e+00
707           	2.802987e+00
708           	2.237812e+00
709           	1.551667e+00
710           	7.922100e-01
711           	4.902054e-02
712           	7.566980e-01
713           	1.408251e+00
714           	1.899909e+00
715           	2.210884e+00
716           	2.360528e+00
717           	2.377144e+00
718           	2.281034e+00
719           	2.082388e+00
720           	1.785936e+00
721           	1.411699e+00
722           	9.932623e-01
723           	5.579724e-01
724           	1.177327e-01
725           	3.223948e-01
726           	7.710530e-01
727           	1.200769e+00
728           	1.558496e+00
729           	1.817035e+00
730           	1.956071e+00
731           	1.974534e+00
732           	1.895153e+00
733           	1.741043e+00
734           	1.537978e+00
735           	1.287280e+00
736           	9.845457e-01
737           	6.578492e-01
738           	3.770520e-01
739           	3.546042e-01
740           	5.381710e-01
741           	7.075277e-01
742           	8.365536e-01
743           	9.478884e-01
744           	1.051591e+00
745           	1.158508e+00
746           	1.254868e+00
747           	1.287645e+00
748           	1.216559e+00
749           	1.037389e+00
750           	7.588773e-01
751           	4.154701e-01
752           	6.594596e-02
753           	4.052449e-01
754           	8.164506e-01
755           	1.176911e+00
756           	1.448255e+00
757           	1.620032e+00
758           	1.681503e+00
759           	1.646524e+00
760           	1.500386e+00
761           	1.247438e+00
762           	9.205971e-01
763           	5.714745e-01
764           	2.791208e-01
765           	3.467434e-01
766           	6.579403e-01
767           	9.674846e-01
768           	1.231594e+00
769           	1.413686e+00
770           	1.511307e+00
771           	1.518192e+00
772           	1.428333e+00
773           	1.225069e+00
774           	9.109697e-01
775           	5.155071e-01
776           	2.052927e-01
777           	4.941341e-01
778           	8.568702e-01
779           	1.159882e+00
780           	1.420194e+00
781           	1.601370e+00
782           	1.663025e+00
783           	1.591108e+00
784           	1.411860e+00
785           	1.181548e+00
786           	9.644180e-01
787           	8.198207e-01
788           	7.840459e-01
789           	8.471226e-01
790           	9.687366e-01
791           	1.109963e+00
792           	1.232440e+00
793           	1.313387e+00
794           	1.339785e+00
795           	1.294809e+00
796           	1.187188e+00
797           	1.038083e+00
798           	9.003383e-01
799           	8.272818e-01
800           	8.225502e-01
